LAMMPS data file via write_data, version 3 Mar 2020, timestep = 521

10411 atoms
71 atom types
7399 bonds
254 bond types
5512 angles
155 angle types
3375 dihedrals
47 dihedral types
125 impropers
5 improper types

-1.7416334679865031e-04 2.0000017416334680e+02 xlo xhi
-1.7416334679865031e-04 2.0000017416334680e+02 ylo yhi
-1.7416334679865031e-04 2.0000017416334680e+02 zlo zhi

Masses

1 15.9994
2 15.9994
3 15.9994
4 15.9994
5 15.9994
6 14.0067
7 14.0067
8 14.0067
9 14.0067
10 14.0067
11 14.0067
12 12.011
13 12.011
14 13.019
15 14.027
16 15.035
17 16.043
18 14.027
19 12.011
20 1.008
21 1.008
22 1
23 32.06
24 63.546
25 63.546
26 55.847
27 65.37
28 24.305
29 40.08
30 39.948
31 18.9984
32 35.453
33 79.904
34 12.011
35 15.9994
36 22.9898
37 35.453
38 12.011
39 35.453
40 1.008
41 32.06
42 12.011
43 15.9994
44 12.011
45 35.453
46 18.9984
47 12.011
48 13.019
49 15.9994
50 12.011
51 15.9994
52 14.0067
53 15.035
54 126.904
55 35.453
56 10.811
57 78.96
58 1.008
59 35.453
60 79.904
61 15.9994
62 14.0067
63 12.011
64 12.011
65 14.0067
66 14.0067
67 15.9994
68 28.08
69 30.9738
70 15.9994
71 2.016

Pair Coeffs # lj/cut/coul/long

1 0.305714 2.76007
2 0.412295 2.62585
3 0.203061 2.95484
4 0.252656 2.84916
5 0.155394 3.16565
6 0.152915 3.13647
7 0.0700622 3.5722
8 0.152915 3.13647
9 0.104651 3.34113
10 0.152915 3.13647
11 0.152915 3.13647
12 0.0663015 3.58118
13 0.00167194 6.63949
14 0.0226791 5.01918
15 0.098122 4.07038
16 0.207254 3.74792
17 0.302012 3.70995
18 0.11455 3.95474
19 0.120138 3.74119
20 0.0282937 2.37341
21 0 0
22 0 0
23 0.455513 3.30769
24 2.039 1.5184
25 2.039 1.5184
26 0 0
27 1.107 1.68112
28 0.0747249 1.93323
29 0.121156 2.81311
30 0.238148 3.40984
31 0.10897 2.94006
32 0.300087 3.46982
33 0.69792 3.6508
34 0.243126 3.60124
35 0.131455 3.17694
36 0.00509651 3.12117
37 0.162149 4.09571
38 0.101741 3.40006
39 0.299511 3.44
40 0.0197496 2.20219
41 0.310038 3.55995
42 0.207254 3.74792
43 0.409923 2.63004
44 0.0544087 3.7739
45 0.270582 3.44757
46 0.0828967 3.07717
47 0.0970049 3.3611
48 0.117014 3.91992
49 0.203061 2.95484
50 0.105027 3.74991
51 0.210013 2.95998
52 0.169966 3.25006
53 0.207254 3.74792
54 0.836845 3.84961
55 0.329921 3.26983
56 0.0663015 3.58118
57 0.455513 3.30769
58 0 0
59 0.329921 3.26983
60 0.580843 3.89995
61 0.119432 3.40025
62 0.1399 3.9019
63 0.0734574 3.52053
64 0.245018 2.81144
65 0.142655 4.06776
66 0.219779 3.64529
67 0.119497 3.1
68 0.584786 3.38557
69 0.584786 3.38557
70 0.1553 3.166
71 0 0

Bond Coeffs # harmonic

1 375.239 1
2 446.941 1
3 349.274 1.09
4 1109.29 1.12
5 600.242 1.23
6 500.418 1.25
7 499.732 1.32
8 375.003 1.33
9 448.144 1.33
10 498.877 1.33
11 450.617 1.34
12 502.116 1.34
13 450.906 1.36
14 500.679 1.38
15 399.904 1.39
16 498.726 1.39
17 400.057 1.4
18 399.792 1.43
19 450.132 1.43
20 300.222 1.435
21 449.843 1.47
22 299.976 1.48
23 399.968 1.48
24 450.226 1.48
25 450.108 1.5
26 299.844 1.52
27 400.034 1.53
28 299.851 1.61
29 299.727 1.63
30 205.976 1.78
31 449.816 1.78
32 449.828 1.83
33 300.045 1.87
34 59.9679 1.98
35 60.0382 2
36 500.307 2.04
37 63.0357 2.21
38 554.493 1
39 349.928 1.1
40 599.794 1.758
41 449.829 1.53
42 444.341 1.93799
43 599.679 1.76
44 501.026 1.265
45 448.656 1.35
46 555.129 1.63299
47 350.249 2.33839
48 600.161 2.90283
49 445.884 2.79388
50 443.815 2.91189
51 409.328 2.077
52 600.173 2.87407
53 88.4321 1.1
54 56.1663 1.84
55 513.862 1.01
56 310.707 1.41
57 442.161 1.02
58 239.006 1.46
59 513.862 1.29
60 442.161 0.972
61 812.62 1.22
62 466.061 1.22
63 239.006 1.54
64 179.254 1.56
65 227.055 1.54
66 106.358 1.76
67 131.453 1.69
68 203.155 1.75
69 203.155 1.51
70 143.403 1.57
71 179.254 0.971
72 191.205 1.5
73 262.906 1.45
74 549.713 1.52
75 83.652 1.03
76 191.205 1.74
77 191.205 1.72
78 227.055 1.64
79 203.155 1.67
80 191.205 1.66
81 215.105 1.65
82 513.862 1.31
83 155.354 1.01
84 35.8509 1.89
85 101.577 1.93
86 155.354 1.36
87 167.304 1.79
88 114.723 1.35
89 155.354 1.39
90 203.155 1.38
91 227.055 0.983
92 155.354 1.3
93 418.26 1.08
94 155.354 1.9
95 1314.53 1.16
96 143.403 1.8
97 155.354 1.42
98 478.011 0.984
99 119.503 1.08
100 119.503 1.91
101 418.26 1.03
102 525.813 1.28
103 131.453 1.22
104 143.403 1.11
105 1195.03 1.21
106 466.061 1.07
107 956.023 1.21
108 693.117 1.21
109 87.2371 1.85
110 394.359 1.11
111 109.943 2.09
112 131.453 1.82
113 99.1874 1.96
114 56.1663 1.86
115 167.304 1.21
116 167.304 1.28
117 143.403 1.71
118 131.453 1.6
119 454.111 1.21
120 41.826 1.61
121 131.453 1.94
122 155.354 1.59
123 143.403 2.1
124 119.503 2.12
125 57.3614 2.13
126 203.155 1.26
127 1195.03 1.14
128 191.205 1.23
129 788.719 1.3
130 239.006 1.31
131 59.7514 2.04
132 82.457 1.34
133 621.415 0.938
134 310.707 1.16
135 34.6558 2.07
136 60.9465 1.16
137 93.2122 2.16
138 43.021 2.23
139 23.9006 2.05
140 896.272 1.19
141 728.967 1.47
142 394.359 1.57
143 1195.03 1.18
144 54.9713 1.87
145 1063.58 1.17
146 215.105 1.13
147 59.7514 2.02
148 179.254 1.07
149 250.956 1.14
150 155.354 1.06
151 537.763 1.46
152 812.62 1.17
153 92.0172 2.15
154 239.006 1.04
155 60.9465 1.4
156 1314.53 1.11
157 466.061 1.56
158 752.868 1.49
159 501.912 1.54
160 35.8509 2.17
161 35.8509 2.27
162 669.216 1.45
163 764.818 1.25
164 848.47 1.27
165 561.663 1.16
166 1434.03 1.14
167 501.912 1.17
168 537.763 1.19
169 920.172 1.14
170 227.055 1.24
171 1434.03 1.13
172 89.6272 2.91
173 57.3614 2.24
174 418.26 0.743
175 239.006 1.2
176 111.138 2.33
177 96.7973 2.42
178 83.652 1.32
179 1159.18 1.2
180 1314.53 1.2
181 430.21 1.58
182 53.7763 1.47
183 1.55354 2.77
184 5.13862 2.25
185 100.382 2.18
186 50.1912 1.52
187 93.2122 2.19
188 27.4857 1.48
189 1912.05 1.07
190 8.60421 2.8
191 87.2371 2.52
192 0.669216 2.79
193 812.62 1.16
194 1.79254 2.68
195 406.31 1.59
196 119.503 1.18
197 34.6558 2.54
198 1792.54 1.1
199 824.57 1.29
200 33.4608 2.44
201 107.553 2.41
202 112.333 2.36
203 20.3155 1.43
204 2.27055 2.57
205 19.1205 2.47
206 0.764818 2.71
207 1553.54 1.12
208 3.70459 2.75
209 501.912 1.14
210 0.717017 2.86
211 10.5163 2.64
212 1912.05 0.985
213 1.91205 2.61
214 7.40918 2.62
215 59.7514 2.46
216 3.58509 2.66
217 1.31453 2.72
218 58.5564 1.63
219 573.614 1.12
220 37.0459 2.32
221 16.7304 1.44
222 1553.54 1.16
223 7.17017 2.69
224 10.0382 2.49
225 3.22658 2.92
226 0.82457 2.29
227 9.79924 2.4
228 1.03967 2.37
229 1.55354 2.94
230 5.85564 2.95
231 1.67304 2.96
232 0.0131453 2.56
233 5.25813 2.59
234 15.5354 2.38
235 836.52 1.12
236 1.91205 2.5
237 2.39006 2.3
238 585.564 1.04
239 3.34608 2.99
240 0.967973 2.34
241 1.07553 2.98
242 2.27055 2.74
243 1063.58 1.16
244 812.62 1.5
245 1.31453 2.84
246 0.322658 2.82
247 908.222 1.23
248 466.061 1.05
249 3.34608 2.88
250 1434.03 1.18
251 1673.04 1.15
252 6.33365 2.9
253 0 0
254 100 1

Angle Coeffs # harmonic

1 45.3116 90
2 50.0917 90
3 47.7712 96
4 54.9551 100
5 47.5559 103
6 55.0345 104
7 50.1709 108
8 30.1731 109.5
9 33.8897 109.5
10 40.2609 109.5
11 45.0394 109.5
12 47.694 109.5
13 55.1272 109.5
14 47.635 109.6
15 55.1139 111
16 55.0997 113
17 4.824 115
18 45.0699 115
19 59.7937 115
20 44.8085 116
21 59.7719 116
22 60.1639 117
23 34.88 120
24 39.8095 120
25 45.1871 120
26 47.4278 120
27 50.1166 120
28 59.9756 120
29 69.8346 120
30 60.0726 121
31 60.091 122
32 34.8146 123
33 59.8929 124
34 30.0075 125
35 60.0779 125
36 44.9139 126
37 49.998 126
38 60.166 126
39 50.1189 132
40 47.5187 155
41 28.4971 180
42 45.9951 109.5
43 52.4767 107.57
44 65.472 111.3
45 55.0189 97.4
46 55.0247 106.75
47 47.5019 108.53
48 65.5335 109.5
49 54.9566 107.6
50 47.4817 109.5
51 54.9931 110.3
52 55.0234 111.4
53 60.044 117.2
54 60.0023 121.4
55 48.24 180
56 180.46 109
57 192.229 106
58 145.153 126
59 145.153 96.2
60 156.922 114
61 203.998 119
62 239.306 130
63 298.152 107
64 156.922 134
65 239.306 101
66 286.382 113
67 368.766 134
68 356.997 119
69 333.459 126
70 251.075 89.6
71 380.536 114
72 286.382 135
73 145.153 88.3
74 133.384 60
75 380.536 179
76 251.075 180
77 470.766 178
78 47.0766 59.9
79 47.0766 60.3
80 251.075 124
81 706.149 118
82 117.691 144
83 627.688 123
84 470.766 118
85 333.459 94.8
86 90.2301 175
87 156.922 82.8
88 117.691 77.6
89 239.306 145
90 251.075 50.8
91 380.536 104
92 262.844 84.4
93 215.768 63.3
94 215.768 61
95 298.152 173
96 192.229 173
97 82.384 50.9
98 431.535 127
99 62.7688 67.8
100 156.922 180
101 588.457 118
102 30.1731 110
103 227.537 94.8
104 431.535 173
105 34.5228 78.5
106 70.6149 138
107 70.6149 168
108 156.922 167
109 18.046 149
110 333.459 144
111 356.997 148
112 321.69 144
113 356.997 148
114 321.69 147
115 333.459 144
116 5099.96 60.8
117 1451.53 68
118 298.152 161
119 156.922 155
120 309.921 154
121 215.768 75.3
122 309.921 64.7
123 549.227 173
124 3334.59 45.8
125 863.071 123
126 549.227 123
127 470.766 166
128 380.536 166
129 203.998 139
130 66.6918 161
131 7.45379 44.9
132 25.1075 84.8
133 192.229 161
134 333.459 70.4
135 627.688 173
136 1.92229 51.6
137 21.5768 73.3
138 7.45379 174
139 470.766 132
140 145.153 69.9
141 15.6922 144
142 1922.29 97.9
143 392.305 155
144 588.457 104
145 117.691 149
146 509.996 157
147 286.382 166
148 333.459 89.8
149 392.305 79.1
150 6669.18 45.2
151 470.766 101
152 745.379 125
153 168.691 49.6
154 509.996 112
155 100 109.47

Dihedral Coeffs # harmonic

1 0.638145 -1 1
2 0.81501 -1 1
3 1.18786 -1 1
4 1.40057 -1 1
5 2.2347 -1 1
6 2.2586 -1 1
7 0.666826 1 1
8 1.27868 1 1
9 0.365679 -1 2
10 1.40057 -1 2
11 1.69933 -1 2
12 3.9914 -1 2
13 5.73614 -1 2
14 8.00669 -1 2
15 9.99044 -1 2
16 0 1 2
17 0.0999044 1 2
18 0.499522 1 2
19 0.750478 1 2
20 1.21654 1 2
21 3.9914 1 2
22 0.250956 1 3
23 0.301147 1 3
24 0.310707 1 3
25 0.604685 1 3
26 0.700287 1 3
27 0.762428 1 3
28 0.872371 1 3
29 0.901052 1 3
30 0.932122 1 3
31 0.999044 1 3
32 1.12094 1 3
33 1.30019 1 3
34 1.41491 1 3
35 1.83795 1 3
36 2.06023 1 3
37 2.27055 1 3
38 0 1 4
39 0.239006 -1 6
40 0.239006 1 6
41 0.901052 1 6
42 0.83652 -1 2
43 0.669216 1 3
44 0.167304 -1 6
45 0.0956023 1 6
46 0.239006 -1 3
47 0 1 1

Improper Coeffs # harmonic

1 20.0075 0
2 40.0151 35.2644
3 80.0302 0
4 20.0075 180
5 40.0151 -35.2644

Atoms # full

3224 617 18 4.2380000000000001e-01 4.9894268498074332e+01 4.0926435451771193e+00 1.2430073505266692e+00 0 0 0
3359 662 18 4.2380000000000001e-01 5.0978490303900180e+01 3.4775835868853058e+00 6.1559562848197453e+00 0 0 0
3360 662 18 4.2380000000000001e-01 5.3345485255414012e+01 3.5581971671202668e+00 2.7498105720700838e+00 0 0 0
3361 662 17 -8.4760000000000002e-01 5.2057569551199521e+01 3.5428083048122123e+00 4.3826329715563279e+00 0 0 0
7842 2156 18 4.2380000000000001e-01 9.1534970822973690e+01 5.5938231249205261e-01 7.4566291784760130e+00 0 1 0
3207 611 18 4.2380000000000001e-01 1.2303476593248732e+02 5.1516110269138995e+00 1.5448470789004292e+00 0 0 0
3208 611 17 -8.4760000000000002e-01 1.2438467884742029e+02 6.1756283593346577e+00 3.4384260444582759e-01 0 0 0
1941 189 18 4.2380000000000001e-01 1.6644754423114097e+02 3.6568146004047826e+00 2.7767874120777907e+00 0 0 0
1942 189 17 -8.4760000000000002e-01 1.6709530506374534e+02 5.5110150557778104e+00 2.0970962563111000e+00 0 0 0
1940 189 18 4.2380000000000001e-01 1.6775725243144566e+02 7.2604267520302459e+00 1.1894098313390247e+00 0 0 0
3815 814 18 4.2380000000000001e-01 1.7252067038381381e+02 5.4271489240624673e+00 3.2702934760519673e+00 0 0 0
3817 814 17 -8.4760000000000002e-01 1.7457871276171920e+02 5.3388011041835304e+00 3.5422079722292916e+00 0 0 0
2963 530 18 4.2380000000000001e-01 1.7562672850667170e+02 2.0621689835558348e+00 5.3216925414000960e+00 0 0 0
3816 814 18 4.2380000000000001e-01 1.7664313431627434e+02 5.4978342469786909e+00 3.7451356885211835e+00 0 0 0
2965 530 17 -8.4760000000000002e-01 1.7765002334136551e+02 2.2657595486075803e+00 5.7541165735691608e+00 0 0 0
3383 670 18 4.2380000000000001e-01 1.7791748214394116e+02 5.6592867985506521e+00 7.4718691462173465e+00 0 0 0
3384 670 18 4.2380000000000001e-01 1.8112304795269799e+02 7.3788866804062190e+00 5.4763575030639133e+00 0 0 0
3385 670 17 -8.4760000000000002e-01 1.7954258459119936e+02 6.4088908075055482e+00 6.4119848141055860e+00 0 0 0
2964 530 18 4.2380000000000001e-01 1.7969783987864807e+02 2.5618972274239598e+00 5.9478678674300491e+00 0 0 0
2975 534 18 4.2380000000000001e-01 1.9090266417158659e+02 5.7970384734294891e+00 6.2610580931940945e+00 0 0 0
2977 534 17 -8.4760000000000002e-01 1.9134130871413257e+02 7.7880568703393669e+00 5.8641390346584901e+00 0 0 0
2760 462 18 4.2380000000000001e-01 3.1436793423277852e+01 1.4111731532919830e+01 3.7929362858223103e+00 0 0 0
2761 462 17 -8.4760000000000002e-01 3.1681113519234376e+01 1.3426058155190615e+01 1.8476626418922555e+00 0 0 0
5712 1446 18 4.2380000000000001e-01 2.9377021916046054e+01 1.0478485017266966e+01 8.7054825769419697e-01 0 0 1
1841 156 18 4.2380000000000001e-01 4.0195040872073442e+01 1.4612542065189956e+01 4.5227509020467460e+00 0 0 0
1842 156 18 4.2380000000000001e-01 4.3604412982218015e+01 1.3045172998791699e+01 2.7538216976300625e+00 0 0 0
1843 156 17 -8.4760000000000002e-01 4.1925116633024111e+01 1.3762143947390641e+01 3.7448347874210928e+00 0 0 0
3320 649 18 4.2380000000000001e-01 4.2330063260822854e+01 1.2316923197338090e+01 7.1189577466685767e+00 0 0 0
3623 750 18 4.2380000000000001e-01 6.8214805305974735e+01 1.6543542606405456e+01 5.3850557500662157e+00 0 0 0
3625 750 17 -8.4760000000000002e-01 6.8343515588587564e+01 1.5932671351478739e+01 7.3660363803944948e+00 0 0 0
3597 741 18 4.2380000000000001e-01 8.2080188486399464e+01 8.9613604368794704e+00 4.6636574212800355e+00 0 0 0
3598 741 17 -8.4760000000000002e-01 8.2446514957612862e+01 8.4027714270236373e+00 6.6300276780003351e+00 0 0 0
3638 755 18 4.2380000000000001e-01 9.2006832913200597e+01 1.2829304191433454e+01 8.2170204268239413e+00 0 0 0
3062 563 18 4.2380000000000001e-01 1.1454064733012446e+02 1.6539844372185801e+01 4.1249678772236766e+00 0 0 0
3063 563 18 4.2380000000000001e-01 1.1820862912824282e+02 1.4895936453403754e+01 5.1518072650034270e+00 0 0 0
3064 563 17 -8.4760000000000002e-01 1.1637027301899145e+02 1.5640986308809428e+01 4.5360880277575992e+00 0 0 0
5061 1229 18 4.2380000000000001e-01 1.1557713616693326e+02 1.5041249913818678e+01 7.9846480104380724e-01 0 0 1
5062 1229 17 -8.4760000000000002e-01 1.1383139961640487e+02 1.6081100313931781e+01 3.5647306200823359e-01 0 0 1
1775 134 18 4.2380000000000001e-01 1.6462895926025158e+02 9.1784395916830555e+00 2.2841922789731188e+00 0 0 0
1777 134 17 -8.4760000000000002e-01 1.6590947265185872e+02 1.0425254618146836e+01 1.2212142573595040e+00 0 0 0
1776 134 18 4.2380000000000001e-01 1.6699101513742829e+02 1.1831213074188035e+01 1.3961283158445364e-01 0 0 0
2976 534 18 4.2380000000000001e-01 1.9201096137736175e+02 9.6983649577977662e+00 5.3993037504970793e+00 0 0 0
2636 421 18 4.2380000000000001e-01 1.1147709579788843e+01 1.9629900152474203e+01 2.5561493085251232e+00 0 0 0
2637 421 18 4.2380000000000001e-01 1.5113903295004938e+01 1.9003006541656909e+01 1.5223143201868934e+00 0 0 0
2638 421 17 -8.4760000000000002e-01 1.3155090238328214e+01 1.9275329757253946e+01 2.1568132853731155e+00 0 0 0
3290 639 18 4.2380000000000001e-01 1.7120966856935689e+02 1.9043124615687912e+01 6.6474668052682055e+00 0 0 0
3292 639 17 -8.4760000000000002e-01 1.7267031407794008e+02 1.8561028608286403e+01 8.0429731833837383e+00 0 0 0
3740 789 18 4.2380000000000001e-01 4.7589939709483140e+00 2.9010738950928332e+01 6.1308943821321824e+00 0 0 0
3742 789 17 -8.4760000000000002e-01 5.9789456874950666e+00 2.7879857831681925e+01 7.3787823533624115e+00 0 0 0
2634 420 18 4.2380000000000001e-01 1.1938518435020562e+00 2.7117706476533677e+01 5.5847789135738477e+00 1 0 0
2635 420 17 -8.4760000000000002e-01 1.4297382836295207e+00 2.8774596628713070e+01 4.3521146782059494e+00 1 0 0
2633 420 18 4.2380000000000001e-01 1.4711202679877440e+00 3.0333178350845010e+01 2.9808968950050989e+00 1 0 0
2268 298 18 4.2380000000000001e-01 1.9359405269183874e+01 2.9758825233670610e+01 7.2992206342119559e+00 0 0 0
2555 394 18 4.2380000000000001e-01 2.3195836934175375e+01 2.6665477551064452e+01 8.0801871403107146e+00 0 0 0
2246 291 18 4.2380000000000001e-01 2.6380157348795741e+01 3.1988632259664392e+01 7.1490894366199740e+00 0 0 0
1850 159 18 4.2380000000000001e-01 6.0364342668477427e+01 2.9465277354329842e+01 5.6082641072484103e+00 0 0 0
1852 159 17 -8.4760000000000002e-01 6.1730869271552969e+01 2.9510272529143709e+01 7.1713792736623700e+00 0 0 0
3671 766 18 4.2380000000000001e-01 6.3770951266091785e+01 3.2858810415482189e+01 7.1844387115202677e+00 0 0 0
3059 562 18 4.2380000000000001e-01 7.8356221805762061e+01 2.9546621627675382e+01 6.5182306158554253e+00 0 0 0
3060 562 18 4.2380000000000001e-01 7.4486257849516548e+01 2.8058082850602712e+01 6.5281098354147193e+00 0 0 0
3061 562 17 -8.4760000000000002e-01 7.6432964705447631e+01 2.8772532321131205e+01 6.6461119924394412e+00 0 0 0
3706 777 17 -8.4760000000000002e-01 8.7498146975146639e+01 3.2927549445944777e+01 2.0121098269398296e+00 0 0 0
3704 777 18 4.2380000000000001e-01 8.8730035552978450e+01 3.1401159604919147e+01 1.3286940724455121e+00 0 0 0
2904 510 18 4.2380000000000001e-01 1.1023600212945576e+02 2.6182251887923833e+01 3.3630594427337730e+00 0 0 0
2905 510 17 -8.4760000000000002e-01 1.1027117714121623e+02 2.6839035714368148e+01 1.3930956897948654e+00 0 0 0
2957 528 18 4.2380000000000001e-01 1.2969278060445586e+02 2.7604903223623172e+01 6.8963825075684104e+00 0 0 0
2959 528 17 -8.4760000000000002e-01 1.3156640198838318e+02 2.7204401674729546e+01 7.6986136967759160e+00 0 0 0
3666 764 18 4.2380000000000001e-01 1.3918887516432747e+02 3.3188781987142612e+01 1.6781583298171088e+00 0 0 0
4737 1121 18 4.2380000000000001e-01 1.3784799001684789e+02 2.8380937932152975e+01 2.9167304227999979e-01 0 0 1
5598 1408 18 4.2380000000000001e-01 5.4962856001334153e+00 3.6546230454893518e+01 2.7662103157148665e-01 0 0 1
2248 291 17 -8.4760000000000002e-01 2.7027585244398647e+01 3.3964610045633286e+01 7.1735137811108505e+00 0 0 0
2247 291 18 4.2380000000000001e-01 2.7667762632797213e+01 3.5928777934244813e+01 6.9409792631908163e+00 0 0 0
2694 440 18 4.2380000000000001e-01 2.4873368374000332e+01 4.0160131375735574e+01 7.5269475068329044e+00 0 0 0
3266 631 18 4.2380000000000001e-01 5.0046337518755799e+01 4.0020410312897582e+01 4.6590481858881265e+00 0 0 0
3268 631 17 -8.4760000000000002e-01 4.9511922006311231e+01 4.1527080084961796e+01 3.3290251013275283e+00 0 0 0
3705 777 18 4.2380000000000001e-01 8.6089944066212084e+01 3.4366544590974620e+01 2.5300697375553138e+00 0 0 0
3392 673 18 4.2380000000000001e-01 8.5770203670918093e+01 3.8476797797261220e+01 5.2363978572347367e+00 0 0 0
3394 673 17 -8.4760000000000002e-01 8.7265011842108350e+01 3.7079978460392091e+01 4.8757535258510591e+00 0 0 0
3393 673 18 4.2380000000000001e-01 8.8898973729173221e+01 3.5807414434588658e+01 4.6904238371581286e+00 0 0 0
3665 764 18 4.2380000000000001e-01 1.4274626652271127e+02 3.5174870260949490e+01 8.8796596669583416e-01 0 0 0
3667 764 17 -8.4760000000000002e-01 1.4094275175499175e+02 3.4176869004907346e+01 1.1572940185441873e+00 0 0 0
4296 974 18 4.2380000000000001e-01 1.4690307336367383e+02 3.7399902571567587e+01 4.7932229159978232e-02 0 0 1
1908 178 18 4.2380000000000001e-01 1.5052974639791125e+02 3.9161336328432753e+01 7.8498555137023873e-01 0 0 0
1909 178 17 -8.4760000000000002e-01 1.5047938606269003e+02 3.7183049109235078e+01 1.4998799680671840e-01 0 0 0
2316 314 18 4.2380000000000001e-01 3.8248794216762228e+01 4.7950897910404500e+01 4.0905776191609382e+00 0 0 0
2317 314 17 -8.4760000000000002e-01 3.6509067106389800e+01 4.9089074653701950e+01 4.0875553216038192e+00 0 0 0
3467 698 18 4.2380000000000001e-01 4.2188377836717919e+01 4.8511063179675624e+01 2.3261770347002151e+00 0 0 0
3468 698 18 4.2380000000000001e-01 4.2491688391389943e+01 4.4887580791506089e+01 4.3216290047765540e+00 0 0 0
3469 698 17 -8.4760000000000002e-01 4.2217147686285621e+01 4.6709871037006820e+01 3.3615891157313151e+00 0 0 0
3267 631 18 4.2380000000000001e-01 4.8942910223498295e+01 4.2845792682953245e+01 1.8284630763876746e+00 0 0 0
3438 688 18 4.2380000000000001e-01 5.1541742102697704e+01 4.3199487359605193e+01 6.1270103777950240e+00 0 0 0
3439 688 17 -8.4760000000000002e-01 5.2194863588935554e+01 4.1676059549128837e+01 7.3826061684696427e+00 0 0 0
2363 330 18 4.2380000000000001e-01 5.6429495721203054e+01 4.4927731985530997e+01 3.0009162154695233e+00 0 0 0
2365 330 17 -8.4760000000000002e-01 5.6608729978844060e+01 4.6630490048737599e+01 1.8242884265863653e+00 0 0 0
2364 330 18 4.2380000000000001e-01 5.6545332930528808e+01 4.8385899545124246e+01 7.1107509613439701e-01 0 0 0
2516 381 18 4.2380000000000001e-01 7.9410838763726460e+01 4.5148487957347051e+01 6.0232957028938721e+00 0 0 0
2518 381 17 -8.4760000000000002e-01 7.9449079543655714e+01 4.3981831444286080e+01 7.7413995405282066e+00 0 0 0
3404 677 18 4.2380000000000001e-01 9.1088902260524648e+01 4.7388835693786966e+01 1.0586732238573093e+00 0 0 0
3405 677 18 4.2380000000000001e-01 9.1011532698455184e+01 4.3243195962165942e+01 1.0971139625327611e+00 0 0 0
3406 677 17 -8.4760000000000002e-01 9.1145500289869460e+01 4.5313574795521163e+01 9.9380442243049449e-01 0 0 0
2622 416 18 4.2380000000000001e-01 1.6776123501346794e+02 4.9000339997675383e+01 7.5629737895213465e+00 0 0 0
2315 314 18 4.2380000000000001e-01 3.4756011931174498e+01 5.0175946134887639e+01 4.3332225392328292e+00 0 0 0
5384 1337 18 4.2380000000000001e-01 1.9142709577509973e+02 5.3425726621225962e+01 1.9780714390684140e-01 0 0 1
5386 1337 17 -8.4760000000000002e-01 1.9326058663993484e+02 5.4395386117514029e+01 8.6742345403663018e-02 0 0 1
2972 533 18 4.2380000000000001e-01 1.9860081745269565e+02 5.6951876315620531e+01 2.9973487650079229e+00 0 0 0
2973 533 18 4.2380000000000001e-01 1.9490972509269707e+02 5.5130086388252266e+01 3.5156909733128159e+00 0 0 0
2974 533 17 -8.4760000000000002e-01 1.9673999198967974e+02 5.6038493458846624e+01 3.1291763483704127e+00 0 0 0
3338 655 18 4.2380000000000001e-01 2.5426074505065131e+01 6.1847775761257786e+01 1.7833191459864373e+00 0 0 0
3339 655 18 4.2380000000000001e-01 2.9480431293422143e+01 6.1474159550627029e+01 9.9963043121596196e-01 0 0 0
3340 655 17 -8.4760000000000002e-01 2.7445840814869264e+01 6.1536083108784503e+01 1.4126538628878198e+00 0 0 0
3107 578 18 4.2380000000000001e-01 1.4058953657055611e+02 6.4069608274471904e+01 6.5205889021463248e+00 0 0 0
3108 578 18 4.2380000000000001e-01 1.4354823263987103e+02 6.3506897757075514e+01 3.6632520249432030e+00 0 0 0
3109 578 17 -8.4760000000000002e-01 1.4213053662863791e+02 6.3891797640034738e+01 5.1354320857441689e+00 0 0 0
3696 774 18 4.2380000000000001e-01 1.6579865729513804e+02 6.5366046551085276e+01 1.8179887246021742e+00 0 0 0
3697 774 17 -8.4760000000000002e-01 1.6760863009757844e+02 6.5363149018965643e+01 7.9442139861359673e-01 0 0 0
2205 277 18 4.2380000000000001e-01 4.9100002357367849e+01 7.4774111629881020e+01 1.1273732278474422e+00 0 0 0
3573 733 18 4.2380000000000001e-01 9.4476223709600887e+01 6.7532930889970629e+01 3.6344928221546975e+00 0 0 0
3574 733 17 -8.4760000000000002e-01 9.5111435622515202e+01 6.7846887181908556e+01 1.6820827092498696e+00 0 0 0
1887 171 18 4.2380000000000001e-01 1.4351758792736470e+02 6.7311499819803473e+01 4.3107035605271973e+00 0 0 0
1886 171 18 4.2380000000000001e-01 1.4627240852475410e+02 6.7282374509544653e+01 1.2073472244655161e+00 0 0 0
1888 171 17 -8.4760000000000002e-01 1.4486267144457949e+02 6.7176016870541019e+01 2.7316119693998355e+00 0 0 0
1754 127 18 4.2380000000000001e-01 1.6268483768920035e+02 6.9332605139106832e+01 2.7356917436023243e+00 0 0 0
1755 127 18 4.2380000000000001e-01 1.6665498318200454e+02 6.9052465821142277e+01 1.5653833593718729e+00 0 0 0
1756 127 17 -8.4760000000000002e-01 1.6464772772317014e+02 6.9073305449882298e+01 2.1071882205170467e+00 0 0 0
3527 718 18 4.2380000000000001e-01 3.0694899387106025e+00 7.6711244464601378e+01 4.5403130978722270e+00 0 0 0
3528 718 18 4.2380000000000001e-01 5.7514199733639133e+00 7.8977071614043922e+01 2.3300606393793246e+00 0 0 0
3529 718 17 -8.4760000000000002e-01 4.3127737762569325e+00 7.7889845307067290e+01 3.3657363611873543e+00 0 0 0
5226 1284 18 4.2380000000000001e-01 2.4240920036953622e+00 8.0346541946803214e+01 1.1367326225629697e+00 0 0 1
5227 1284 17 -8.4760000000000002e-01 3.7173714014555079e+00 8.1534658845568728e+01 2.4165535960870392e-02 0 0 1
2204 277 18 4.2380000000000001e-01 5.3012354961833374e+01 7.6121103513080342e+01 8.1972029392845158e-01 0 0 0
2206 277 17 -8.4760000000000002e-01 5.1080951146625353e+01 7.5358632011569625e+01 8.8544009251672573e-01 0 0 0
1983 203 18 4.2380000000000001e-01 1.0094403825030051e+02 8.3252972520761347e+01 1.2167260649585045e+00 0 0 0
2876 501 18 4.2380000000000001e-01 1.2504026312023886e+02 7.5224272237565131e+01 3.4137976493870350e+00 0 0 0
2877 501 18 4.2380000000000001e-01 1.2118062112343624e+02 7.5984296796138750e+01 2.1035702930303981e+00 0 0 0
2878 501 17 -8.4760000000000002e-01 1.2306415056767578e+02 7.5542079123669410e+01 2.8591158183784424e+00 0 0 0
2762 463 18 4.2380000000000001e-01 7.1841962249442645e+01 8.6829793529591939e+01 5.6127597379729064e+00 0 0 0
2763 463 18 4.2380000000000001e-01 7.1144170741973966e+01 9.0902008243832796e+01 5.9617114895481613e+00 0 0 0
2764 463 17 -8.4760000000000002e-01 7.1491842963297884e+01 8.8876504664310517e+01 5.6607686949333189e+00 0 0 0
2981 536 18 4.2380000000000001e-01 1.7473702835006742e+02 8.8642606727673694e+01 6.6139791028509451e+00 0 0 0
2982 536 18 4.2380000000000001e-01 1.7392640576621199e+02 8.8672691796576828e+01 2.5456765878982979e+00 0 0 0
2983 536 17 -8.4760000000000002e-01 1.7443719763911477e+02 8.8587572828997565e+01 4.5585119742249196e+00 0 0 0
2255 294 18 4.2380000000000001e-01 1.8070823522703336e+02 8.4246072166801028e+01 2.9851600209980975e+00 0 0 0
2256 294 18 4.2380000000000001e-01 1.7745243998075642e+02 8.6660705588119669e+01 3.8580834775562334e+00 0 0 0
2257 294 17 -8.4760000000000002e-01 1.7913251215452749e+02 8.5547091647477316e+01 3.3535509072946201e+00 0 0 0
3309 645 18 4.2380000000000001e-01 1.9482948849758225e+02 8.5398410929885713e+01 7.7579480696465826e+00 0 0 0
2765 464 18 4.2380000000000001e-01 1.5641332336900507e+02 9.6666400046391203e+01 7.9342783474618459e+00 0 0 0
3264 630 18 4.2380000000000001e-01 1.8063523252650478e+02 9.7363922028802790e+01 3.8289931881259562e+00 0 0 0
3265 630 17 -8.4760000000000002e-01 1.7950342550638325e+02 9.8988218662961998e+01 4.4656480638500593e+00 0 0 0
3634 753 17 -8.4760000000000002e-01 1.8321895349240216e+02 9.8702080377246389e+01 1.3007652047347928e+00 0 0 0
3633 753 18 4.2380000000000001e-01 1.8449990363119900e+02 9.7254424917723256e+01 5.4109353382115599e-01 0 0 0
2372 333 18 4.2380000000000001e-01 5.3805926153591006e+00 3.7143324553436119e-01 1.6462012311866651e+01 0 0 0
6771 1799 18 4.2380000000000001e-01 3.4037823293967257e+01 1.4172433264743607e+00 1.6092646684193262e+01 0 1 0
3728 785 18 4.2380000000000001e-01 7.5001437237390704e+01 5.5066996938874917e+00 1.0566047607591546e+01 0 0 0
3729 785 18 4.2380000000000001e-01 7.8431726247830170e+01 4.8351767661731921e+00 1.2800139103793772e+01 0 0 0
3730 785 17 -8.4760000000000002e-01 7.6769180554139524e+01 5.2759439040439062e+00 1.1631789183018245e+01 0 0 0
3518 715 18 4.2380000000000001e-01 7.9602544143134978e+01 7.5986649549726035e+00 1.0447190854995203e+01 0 0 0
3596 741 18 4.2380000000000001e-01 8.3058361302934870e+01 7.8235280217571042e+00 8.5298291337969037e+00 0 0 0
3519 715 18 4.2380000000000001e-01 8.2857105586421369e+01 7.2207521562906765e+00 1.2999680767288382e+01 0 0 0
3520 715 17 -8.4760000000000002e-01 8.1201494308558651e+01 7.2874634218920837e+00 1.1742839446130285e+01 0 0 0
7843 2156 17 -8.4760000000000002e-01 9.2867291715850399e+01 1.9695410282079795e-01 9.0081957089448839e+00 0 1 0
3029 552 18 4.2380000000000001e-01 9.1941228381032928e+01 1.9366604673361216e+00 1.2310628878766011e+01 0 0 0
3030 552 18 4.2380000000000001e-01 9.4719795584851525e+01 1.1427408454888437e+00 1.5286888911859473e+01 0 0 0
3031 552 17 -8.4760000000000002e-01 9.3393741870579788e+01 1.4606712318360056e+00 1.3720345773168921e+01 0 0 0
1760 129 18 4.2380000000000001e-01 1.2559932265915344e+02 2.8324683284488037e+00 1.3051030999618209e+01 0 0 0
1762 129 17 -8.4760000000000002e-01 1.2759073015096568e+02 2.4381409064106192e+00 1.3489752595526214e+01 0 0 0
1761 129 18 4.2380000000000001e-01 1.2960721887131584e+02 1.9691420691313437e+00 1.3684206956952579e+01 0 0 0
3492 706 18 4.2380000000000001e-01 1.4682615364443575e+02 1.3702722768781315e+00 1.2193591038503108e+01 0 0 0
3199 608 17 -8.4760000000000002e-01 1.4521394044365726e+02 2.3664682622985760e+00 8.9951955750586166e+00 0 0 0
3198 608 18 4.2380000000000001e-01 1.4628533814024499e+02 4.1424759754173657e+00 9.1426849619280173e+00 0 0 0
3491 706 18 4.2380000000000001e-01 1.4933462050032253e+02 1.7492277031224033e+00 1.5475452847484950e+01 0 0 0
3493 706 17 -8.4760000000000002e-01 1.4812227990011135e+02 1.6734648971083723e+00 1.3790881954978310e+01 0 0 0
3920 849 18 4.2380000000000001e-01 1.4909494535494972e+02 4.8552845106246822e+00 1.2103192646728287e+01 0 0 0
3922 849 17 -8.4760000000000002e-01 1.4888441649039731e+02 6.2734461799203798e+00 1.0596203189627369e+01 0 0 0
3921 849 18 4.2380000000000001e-01 1.4887181447611127e+02 7.8120423923407625e+00 9.1999120925501732e+00 0 0 0
3197 608 18 4.2380000000000001e-01 1.4407727711343273e+02 6.7077358710140533e-01 8.6114408842827128e+00 0 0 0
2565 397 18 4.2380000000000001e-01 2.3850105272602615e+01 9.9890064549540583e+00 1.6537823997780144e+01 0 0 0
2564 397 18 4.2380000000000001e-01 2.7960484794031263e+01 1.0109391990913856e+01 1.6006403503334969e+01 0 0 0
2566 397 17 -8.4760000000000002e-01 2.5919631050705110e+01 1.0088703031213432e+01 1.6392178553693757e+01 0 0 0
3321 649 18 4.2380000000000001e-01 4.0674372055111881e+01 1.2280144899768649e+01 1.0920749916382842e+01 0 0 0
3322 649 17 -8.4760000000000002e-01 4.1434589750243994e+01 1.2402408215475155e+01 8.9922891870094794e+00 0 0 0
3624 750 18 4.2380000000000001e-01 6.8276290778907352e+01 1.5477182540791153e+01 9.3914273252210752e+00 0 0 0