LAMMPS (3 Mar 2020)
Reading data file ...
  orthogonal box = (7.69646 7.69646 7.69646) to (52.3035 52.3035 52.3035)
  1 by 1 by 3 MPI processor grid
  reading atoms ...
  8661 atoms
  reading velocities ...
  8661 velocities
  scanning bonds ...
  1 = max bonds/atom
  scanning angles ...
  1 = max angles/atom
  reading bonds ...
  5774 bonds
  reading angles ...
  2887 angles
Finding 1-2 1-3 1-4 neighbors ...
  special bond factors lj:   0          0          0.5       
  special bond factors coul: 0          0          1         
  2 = max # of 1-2 neighbors
  1 = max # of 1-3 neighbors
  1 = max # of 1-4 neighbors
  5774 = # of 1-3 neighbors before angle trim
  5774 = # of 1-3 neighbors after angle trim
  5774 = # of 1-4 neighbors before dihedral trim
  0 = # of 1-4 neighbors after dihedral trim
  2 = max # of special neighbors
  special bonds CPU = 0.00124764 secs
  read_data CPU = 0.069376 secs
8661 atoms in group water
0 atoms in group gly
WARNING: Ignoring 'compress yes' for molecular system (../delete_atoms.cpp:125)
Deleted 0 atoms, new total = 8661
Finding SHAKE clusters ...
  0 = # of size 2 clusters
  0 = # of size 3 clusters
  0 = # of size 4 clusters
  2887 = # of frozen angles
  find clusters CPU = 0.00150371 secs
PPPM initialization ...
  using 12-bit tables for long-range coulomb (../kspace.cpp:332)
  G vector (1/distance) = 0.186656
  grid = 16 16 16
  stencil order = 5
  estimated absolute RMS force accuracy = 0.0304818
  estimated relative force accuracy = 9.1795e-05
  using double precision KISS FFT
  3d grid and FFT values/proc = 4851 1536
Neighbor list info ...
  update every 1 steps, delay 10 steps, check yes
  max neighbors/atom: 2000, page size: 100000
  master list distance cutoff = 16
  ghost atom cutoff = 16
  binsize = 8, bins = 6 6 6
  1 neighbor lists, perpetual/occasional/extra = 1 0 0
  (1) pair lj/cut/coul/long, perpetual
      attributes: half, newton on
      pair build: half/bin/newton
      stencil: half/bin/3d/newton
      bin: standard
Setting up Verlet run ...
  Unit style    : real
  Current step  : 0
  Time step     : 1
Per MPI rank memory allocation (min/avg/max) = 27.4 | 27.79 | 28.2 Mbytes
Step Atoms Temp Press PotEng KinEng E_bond E_pair E_angle E_dihed E_coul E_vdwl TotEng Volume Density 
       0     8661    299.78535   -28.193649   -31792.759    5158.7712            0   -31792.759            0            0    70703.285    6264.9291   -26633.988    88758.767    1.0819218 
    1000     8661    278.41076    50.017799   -32742.022    4790.9526            0   -32742.022            0            0    69422.852    6600.5013   -27951.069    86876.343    1.1053648 
    2000     8661    273.85369   -285.56347   -32682.045    4712.5335            0   -32682.045            0            0    69589.765    6495.7639   -27969.512    87171.855    1.1016176 
    3000     8661    279.32413    125.75912   -32842.248    4806.6702            0   -32842.248            0            0    69212.634    6714.9379   -28035.578    87316.608    1.0997913 
    4000     8661    277.95996   -245.60054   -32910.637    4783.1952            0   -32910.637            0            0    69267.098    6588.8185   -28127.441    87056.378    1.1030788 
    5000     8661     280.3114   -96.181681   -32828.204    4823.6593            0   -32828.204            0            0    69359.891    6577.5909   -28004.544    86677.784    1.1078969 
    6000     8661    282.11032   -117.53461   -32778.607    4854.6155            0   -32778.607            0            0    69362.809    6622.3226   -27923.991    87454.061    1.0980628 
    7000     8661    276.73579   -534.90063   -32755.941    4762.1293            0   -32755.941            0            0    69524.721    6483.0277   -27993.812    87929.146    1.0921299 
    8000     8661    281.36788   -68.797564    -32856.19    4841.8393            0    -32856.19            0            0    69240.873    6665.1575    -28014.35    87439.904    1.0982405 
    9000     8661    279.46611   -128.63892   -32920.725    4809.1133            0   -32920.725            0            0    69209.794    6639.7903   -28111.612    87101.569    1.1025065 
   10000     8661    277.75467   -36.753618   -32863.456    4779.6625            0   -32863.456            0            0    69267.295    6637.6639   -28083.794    86904.311     1.105009 
   11000     8661    275.19715    232.39384   -32690.009    4735.6521            0   -32690.009            0            0    69415.992    6659.8244   -27954.357    86907.705    1.1049659 
   12000     8661    278.46246    -164.5907   -32783.327    4791.8423            0   -32783.327            0            0    69421.687    6565.4082   -27991.484    87082.657     1.102746 
   13000     8661    275.46855    110.61659   -32855.336    4740.3225            0   -32855.336            0            0    69258.189    6651.3376   -28115.014    86344.749    1.1121701 
   14000     8661    277.28884    200.00015   -32894.201    4771.6464            0   -32894.201            0            0    69130.783    6739.6138   -28122.554    86943.966     1.104505 
   15000     8661    277.47929   -181.69339   -32702.297    4774.9236            0   -32702.297            0            0    69475.125    6587.0218   -27927.373    87683.054    1.0951951 
   16000     8661    277.45144   -27.353898   -32798.982    4774.4444            0   -32798.982            0            0    69340.791    6624.0603   -28024.537    87092.487    1.1026215 
   17000     8661    278.36735   -75.791535   -32855.692    4790.2057            0   -32855.692            0            0    69225.615     6683.745   -28065.486    87872.538    1.0928334 
   18000     8661    277.14404   -545.88442   -32907.916    4769.1547            0   -32907.916            0            0    69314.929    6545.4621   -28138.761    88046.538    1.0906738 
   19000     8661     281.1772   -102.23372   -32762.783     4838.558            0   -32762.783            0            0    69351.461    6651.4355   -27924.225    88095.946    1.0900621 
   20000     8661    280.34837    376.56666   -32720.738    4824.2955            0   -32720.738            0            0    69269.586    6776.7045   -27896.442    87371.011    1.0991065 
   21000     8661    277.23779    432.93458   -32886.187    4770.7679            0   -32886.187            0            0    69076.673    6808.1318   -28115.419    86468.329    1.1105806 
   22000     8661    279.04132   -134.66452   -32739.135    4801.8034            0   -32739.135            0            0    69481.088    6544.0184   -27937.332    86949.459    1.1044353 
   23000     8661    277.56968    92.857983    -32785.76    4776.4792            0    -32785.76            0            0    69343.859    6637.3432   -28009.281    86982.206    1.1040195 
   24000     8661    278.99351    79.802118   -32666.865    4800.9807            0   -32666.865            0            0    69494.123    6605.6117   -27865.884    87128.741    1.1021627 
   25000     8661     274.7844   -276.90433   -32719.191    4728.5495            0   -32719.191            0            0    69539.477    6505.4556   -27990.642    87322.832    1.0997129 
   26000     8661    276.12433    120.39328   -32835.828    4751.6072            0   -32835.828            0            0     69276.07    6647.6448   -28084.221    86675.243    1.1079294 
   27000     8661    276.52627     277.2382   -32917.506    4758.5239            0   -32917.506            0            0    69093.514     6758.708   -28158.982    86463.731    1.1106396 
   28000     8661    275.63562     161.9317   -32761.557    4743.1975            0   -32761.557            0            0    69351.073    6651.5628    -28018.36    86641.168    1.1083651 
   29000     8661    281.87907   -26.862026   -32985.648     4850.636            0   -32985.648            0            0     69120.73    6665.3619   -28135.012    86802.955    1.1062993 
   30000     8661    277.32124   -73.010247   -32880.543    4772.2039            0   -32880.543            0            0     69220.98    6669.6116   -28108.339    87166.134    1.1016899 
   31000     8661    276.97776    3.1018012   -32843.481    4766.2932            0   -32843.481            0            0    69228.798    6692.4164   -28077.187     87393.89    1.0988188 
   32000     8661    281.16092    86.197942   -32804.818     4838.278            0   -32804.818            0            0    69269.037    6694.3271    -27966.54    87119.743    1.1022765 
   33000     8661    277.15493    22.458682   -32741.417    4769.3419            0   -32741.417            0            0     69375.37    6650.0444   -27972.075    87523.862    1.0971871 
   34000     8661    282.29287    250.10867   -32845.982    4857.7568            0   -32845.982            0            0    69177.682    6743.0955   -27988.225     87009.38    1.1036747 
   35000     8661    279.59601    161.70372   -32728.574    4811.3487            0   -32728.574            0            0    69378.026    6664.0354   -27917.225    87186.577    1.1014316 
   36000     8661    284.80326    81.150369   -32840.815    4900.9562            0   -32840.815            0            0    69241.277    6683.2732   -27939.859    87312.998    1.0998368 
   37000     8661    277.73099   -94.254364   -32928.562    4779.2549            0   -32928.562            0            0    69213.113    6623.5525   -28149.307    87066.108    1.1029556 
   38000     8661     277.5094   -227.28309   -32800.565    4775.4417            0   -32800.565            0            0    69390.391     6578.019   -28025.123    87247.955    1.1006567 
   39000     8661    274.84594    365.88827   -32735.145    4729.6085            0   -32735.145            0            0    69258.161    6773.0858   -28005.537    87258.827    1.1005196 
   40000     8661     279.0182   -403.34731   -32896.126    4801.4055            0   -32896.126            0            0    69295.452    6575.7279   -28094.721    87654.035    1.0955576 
   41000     8661    278.34763    136.26319   -32796.415    4789.8662            0   -32796.415            0            0    69253.326    6718.9574   -28006.549    87693.835    1.0950604 
   42000     8661    280.80044   -38.070507   -32875.302    4832.0747            0   -32875.302            0            0    69226.396    6668.5941   -28043.227    87632.778    1.0958234 
   43000     8661    283.54453    130.73917   -32894.275    4879.2957            0   -32894.275            0            0    69132.197    6736.9479    -28014.98    87229.804    1.1008857 
   44000     8661    281.72517   -46.689111   -33031.629    4847.9877            0   -33031.629            0            0    69013.544    6724.3278   -28183.641    87710.571    1.0948515 
   45000     8661     274.1459     231.2095   -32841.986     4717.562            0   -32841.986            0            0    69168.361    6755.9953   -28124.424    87263.111    1.1004656 
   46000     8661    281.01331   -126.24853   -32747.256    4835.7378            0   -32747.256            0            0    69388.414    6631.0189   -27911.518    88001.517    1.0912317 
   47000     8661     283.0851    143.35439   -32839.315    4871.3897            0   -32839.315            0            0    69191.316    6736.5688   -27967.926    87384.479    1.0989371 
   48000     8661    273.59692    295.93065   -32837.419    4708.1151            0   -32837.419            0            0     69127.63     6804.002   -28129.304    87503.131     1.097447 
   49000     8661    280.65912   -367.63571   -32850.504    4829.6429            0   -32850.504            0            0    69350.746    6565.4443   -28020.861    87614.567    1.0960512 
   50000     8661    276.67196    -3.490549   -32860.172    4761.0309            0   -32860.172            0            0    69202.829     6701.745   -28099.141    87520.346    1.0972311 
   51000     8661    278.21197    568.66221   -32974.969    4787.5318            0   -32974.969            0            0    68862.535    6930.2583   -28187.437    87125.305    1.1022062 
   52000     8661    278.17875    427.14275   -32732.692    4786.9602            0   -32732.692            0            0    69206.402    6828.1059   -27945.732    87310.177    1.0998723 
   53000     8661     277.3124   -147.51355   -32941.607    4772.0519            0   -32941.607            0            0    69125.132    6696.0227   -28169.555    87836.702    1.0932793 
   54000     8661    280.44911    265.46451   -32865.861    4826.0289            0   -32865.861            0            0     69078.67    6822.9109   -28039.832     87652.22    1.0955803 
   55000     8661    275.77547   -51.784264   -32828.343     4745.604            0   -32828.343            0            0     69291.83    6642.9552   -28082.739    87304.005    1.0999501 
   56000     8661    277.85199    216.64466   -32900.647    4781.3371            0   -32900.647            0            0    69083.779     6785.098    -28119.31    87431.273     1.098349 
   57000     8661    283.51361    59.483878   -32833.195    4878.7636            0   -32833.195            0            0     69250.76    6682.6886   -27954.432    87202.497    1.1012305 
   58000     8661    281.45551   -26.521897    -32906.32    4843.3473            0    -32906.32            0            0    69160.511    6698.5851   -28062.972    87244.303    1.1007028 
   59000     8661    280.09911   -161.80429    -32809.06    4820.0061            0    -32809.06            0            0     69341.78    6611.5235   -27989.054    87432.908    1.0983284 
   60000     8661    275.87683    185.79938   -32799.216    4747.3482            0   -32799.216            0            0    69262.938    6707.9837   -28051.868    87213.658    1.1010896 
   61000     8661    272.62866   -47.147931    -32893.15     4691.453            0    -32893.15            0            0    69194.975    6680.0831   -28201.697    86986.716    1.1039622 
   62000     8661    275.19553    110.92648   -32889.703    4735.6242            0   -32889.703            0            0    69160.727    6717.0784   -28154.079    86724.719    1.1072973 
   63000     8661    277.70336    191.91305   -32967.603    4778.7794            0   -32967.603            0            0    68993.766    6806.5605   -28188.823    87136.772    1.1020611 
   64000     8661    279.63536    237.89129    -32809.62    4812.0257            0    -32809.62            0            0    69177.057    6778.9384   -27997.595    87515.465    1.0972923 
   65000     8661    279.59516    229.86568   -32751.483     4811.334            0   -32751.483            0            0    69281.627    6732.8151   -27940.149    87308.691    1.0998911 
   66000     8661    275.51249   -300.10064   -32963.624    4741.0786            0   -32963.624            0            0    69240.714    6560.8017   -28222.545    86779.864    1.1065937 
   67000     8661    284.79738    68.505861   -32880.759     4900.855            0   -32880.759            0            0    69200.282    6682.5603   -27979.904    87147.891    1.1019205 
   68000     8661    277.28143    383.03524   -32941.875    4771.5189            0   -32941.875            0            0    68946.637    6875.1493   -28170.356    87422.493    1.0984593 
   69000     8661    277.52789    71.878378   -32833.564      4775.76            0   -32833.564            0            0    69220.217    6714.9043   -28057.804     87707.23    1.0948932 
   70000     8661    279.23892    207.83347   -32934.218    4805.2038            0   -32934.218            0            0    69023.925    6809.3713   -28129.014    87608.414    1.0961281 
   71000     8661    277.98525    210.02576   -32814.533    4783.6303            0   -32814.533            0            0    69207.952    6741.8238   -28030.902    87272.954    1.1003414 
   72000     8661    277.51859   -213.72925   -32834.666       4775.6            0   -32834.666            0            0    69358.804    6575.3421   -28059.066    87303.982    1.0999504 
   73000     8661    277.88095    421.68889   -32727.574    4781.8355            0   -32727.574            0            0    69245.884    6791.9738   -27945.738    87022.987    1.1035021 
   74000     8661    282.55447   -163.01309   -32852.262    4862.2585            0   -32852.262            0            0      69300.9    6614.3725   -27990.004    87716.725    1.0947747 
   75000     8661     276.2507    166.14962   -32753.672    4753.7818            0   -32753.672            0            0    69321.739    6693.8057    -27999.89    87318.814    1.0997635 
   76000     8661    279.52889    442.86185   -32898.173    4810.1937            0   -32898.173            0            0    68988.248    6882.2957    -28087.98     87258.61    1.1005223 
   77000     8661    273.28385   -62.726491   -32828.073    4702.7277            0   -32828.073            0            0    69299.402    6641.3091   -28125.346    87164.245    1.1017138 
   78000     8661    271.06495    471.20339   -32860.651    4664.5443            0   -32860.651            0            0    69025.871    6879.5168   -28196.107    87455.661    1.0980427 
   79000     8661    280.37261    252.42177   -32803.387    4824.7126            0   -32803.387            0            0    69245.878    6719.0422   -27978.675    87242.273    1.1007284 
   80000     8661    276.43659   -50.444442   -32895.882    4756.9806            0   -32895.882            0            0    69184.185    6684.8236   -28138.901     87496.83     1.097526 
   81000     8661     274.1783     609.4032   -32731.294    4718.1195            0   -32731.294            0            0    69144.714    6891.3748   -28013.174    87263.323    1.1004629 
   82000     8661    275.34171   -90.729382   -32937.928    4738.1397            0   -32937.928            0            0    69118.984    6709.8237   -28199.788    87366.029    1.0991692 
   83000     8661    277.05005    73.968208   -32827.091    4767.5372            0   -32827.091            0            0    69197.132    6744.6563   -28059.553    87697.562    1.0950139 
   84000     8661    280.44808   -17.521444   -32897.084    4826.0113            0   -32897.084            0            0     69165.37    6705.6752   -28071.073    87817.696    1.0935159 
   85000     8661    283.38455   -131.18921   -32958.587    4876.5426            0   -32958.587            0            0    69156.152    6650.1539   -28082.045    87122.095    1.1022468 
   86000     8661    278.40567     290.5557   -32851.693    4790.8651            0   -32851.693            0            0    69138.686    6772.5142   -28060.828    87048.018    1.1031848 
   87000     8661      280.266   -110.63817    -32790.99     4822.878            0    -32790.99            0            0    69362.396    6612.2635   -27968.112    87357.068    1.0992819 
   88000     8661    276.50144    388.14829   -32931.995    4758.0966            0   -32931.995            0            0    69015.597    6818.0427   -28173.899    86560.455    1.1093986 
   89000     8661    277.30953    146.84844   -32983.667    4772.0023            0   -32983.667            0            0    69005.025     6777.177   -28211.664    86861.315     1.105556 
   90000     8661    277.59814   -203.14159    -32922.34    4776.9688            0    -32922.34            0            0    69249.882     6593.616   -28145.371    86938.208    1.1045782 
   91000     8661    278.10703   -39.072284    -32858.42    4785.7259            0    -32858.42            0            0    69248.787    6657.4837   -28072.694     87227.22    1.1009184 
   92000     8661    276.56137   -363.31883   -32761.944    4759.1278            0   -32761.944            0            0    69498.229    6506.6593   -28002.817    87629.891    1.0958595 
   93000     8661    284.08793    84.035919   -32987.663    4888.6466            0   -32987.663            0            0    69018.537     6760.526   -28099.017    87193.655    1.1013422 
   94000     8661    274.97335   -93.935511   -32980.338    4731.8009            0   -32980.338            0            0    69131.964    6652.5366   -28248.537    86700.932    1.1076011 
   95000     8661    280.30601   -16.265514   -32862.181    4823.5664            0   -32862.181            0            0    69228.903    6676.5902   -28038.614    87299.613    1.1000054 
   96000     8661    277.03038     27.90194   -32773.655    4767.1988            0   -32773.655            0            0    69369.736    6624.8782   -28006.456    86740.712    1.1070931 
   97000     8661     280.3167   -432.74414   -32745.456    4823.7505            0   -32745.456            0            0    69532.958    6491.9999   -27921.706    87610.374    1.0961036 
   98000     8661    273.71992   -150.71646   -32685.907    4710.2316            0   -32685.907            0            0    69524.396    6556.9136   -27975.676    87383.398    1.0989507 
   99000     8661    283.33289    178.92008    -32634.67    4875.6537            0    -32634.67            0            0    69472.413    6659.9211   -27759.016     87235.57     1.100813 
  100000     8661    279.07002    181.57447   -32738.893    4802.2973            0   -32738.893            0            0    69319.869     6706.492   -27936.596     87464.78    1.0979282 
  101000     8661    279.58373    376.50663   -32880.473    4811.1373            0   -32880.473            0            0    68984.567    6902.3301   -28069.335    87872.633    1.0928323 
  102000     8661    275.38866   -172.24957   -32959.626    4738.9476            0   -32959.626            0            0    69074.825    6732.3041   -28220.679    88133.934    1.0895922 
  103000     8661    277.51805    214.28328   -32826.304    4775.5907            0   -32826.304            0            0    69114.772    6829.7148   -28050.713    88232.243    1.0883782 
  104000     8661    276.76642    -131.5337   -32759.798    4762.6564            0   -32759.798            0            0    69328.503    6678.6543   -27997.142    88389.457    1.0864423 
  105000     8661    278.32452    146.13482   -32881.082    4789.4687            0   -32881.082            0            0    69113.736    6771.0752   -28091.614    87360.119    1.0992436 
  106000     8661    281.24245  -0.18808643   -32878.945     4839.681            0   -32878.945            0            0    69172.219    6716.8634   -28039.264    87692.722    1.0950743 
  107000     8661    278.90863   -14.442814   -32681.164    4799.5201            0   -32681.164            0            0    69415.926    6672.6264   -27881.644    88423.186    1.0860279 
  108000     8661     276.5427   -105.18389   -32851.225    4758.8066            0   -32851.225            0            0    69294.541    6623.7636   -28092.419    87405.286    1.0986755 
  109000     8661    280.05465   -104.97945   -32801.619    4819.2411            0   -32801.619            0            0     69386.43    6579.6414   -27982.378    87028.957    1.1034264 
  110000     8661    278.60966   -32.234778    -32643.47    4794.3753            0    -32643.47            0            0    69551.422    6568.7825   -27849.095    87392.957    1.0988305 
  111000     8661    275.21387   -36.574286   -32739.937    4735.9399            0   -32739.937            0            0    69388.112    6635.6378   -28003.997    87320.635    1.0997406 
  112000     8661    281.14166     615.2554   -32891.366    4837.9466            0   -32891.366            0            0     68988.61    6885.2402    -28053.42    86520.025     1.109917 
  113000     8661     278.3779   -159.35413   -32906.518    4790.3872            0   -32906.518            0            0     69228.27     6632.594   -28116.131    87283.955    1.1002028 
  114000     8661    277.15284    119.04055    -32871.92     4769.306            0    -32871.92            0            0    69152.085    6746.4234   -28102.614    87626.114    1.0959067 
  115000     8661    279.11162    71.523616   -32810.204    4803.0131            0   -32810.204            0            0     69256.38    6699.8521   -28007.191    87763.541    1.0941907 
  116000     8661    276.57901   -464.16685   -32843.383    4759.4315            0   -32843.383            0            0    69415.974    6505.2234   -28083.952    87717.081    1.0947702 
  117000     8661    276.50986    178.37416   -32816.286    4758.2415            0   -32816.286            0            0    69227.239    6721.4885   -28058.045    87099.461    1.1025332 
  118000     8661    277.79326   -168.55515   -32652.932    4780.3266            0   -32652.932            0            0    69541.467    6568.9514   -27872.606    87552.787    1.0968246 
  119000     8661    277.47508   -6.2311148    -32874.24    4774.8513            0    -32874.24            0            0    69223.213      6667.13   -28099.388    87210.818    1.1011254 
  120000     8661    276.71759    142.38509   -32799.218    4761.8161            0   -32799.218            0            0    69224.315    6744.0597   -28037.402    87658.052    1.0955074 
  121000     8661     278.6857      202.361   -32931.459    4795.6838            0   -32931.459            0            0    69023.809    6810.4633   -28135.775    87820.392    1.0934823 
  122000     8661    280.55338     491.3619   -32875.407    4827.8233            0   -32875.407            0            0    69027.415    6862.7194   -28047.584    87049.214    1.1031696 
  123000     8661       271.33   -249.33329   -32827.921    4669.1054            0   -32827.921            0            0    69342.351    6596.5973   -28158.815    87557.561    1.0967648 
  124000     8661    276.02466    114.54677   -32887.527    4749.8921            0   -32887.527            0            0     69104.68    6776.1097   -28137.635     87994.08     1.091324 
  125000     8661    284.29925    404.06158   -32969.032     4892.283            0   -32969.032            0            0    68871.495    6928.9222   -28076.749    87732.455    1.0945784 
  126000     8661    277.26035   -127.68537   -33012.272    4771.1561            0   -33012.272            0            0    69025.374    6727.4619   -28241.116    87876.954    1.0927785 
  127000     8661    276.42302    220.73306   -33031.532    4756.7471            0   -33031.532            0            0    68881.251    6854.2876   -28274.785    87569.382    1.0966167 
  128000     8661    277.49775    -179.2194   -32993.481    4775.2414            0   -32993.481            0            0    69115.518    6657.4173   -28218.239    87323.971    1.0996986 
  129000     8661    279.93961   -233.14732   -32804.394    4817.2615            0   -32804.394            0            0    69386.005    6572.1711   -27987.132    87487.894    1.0976381 
  130000     8661    272.95189   -14.206851   -32911.546    4697.0152            0   -32911.546            0            0    69171.072    6686.9928   -28214.531    87260.621     1.100497 
  131000     8661    277.36356   -411.15508   -32883.698    4772.9322            0   -32883.698            0            0    69313.787    6570.3349   -28110.765    87966.998    1.0916599 
  132000     8661    276.11984   -77.986981   -32892.184      4751.53            0   -32892.184            0            0    69224.045    6650.1392   -28140.654    87524.387    1.0971805 
  133000     8661    276.45573   -25.077868   -32825.805      4757.31            0   -32825.805            0            0    69308.292    6632.3075   -28068.495    87131.199    1.1021316 
  134000     8661    279.31859   -97.186022   -32919.424    4806.5747            0   -32919.424            0            0    69159.122    6688.7158   -28112.849     87558.79    1.0967494 
  135000     8661     278.9532    27.961221   -32728.005     4800.287            0   -32728.005            0            0    69384.042    6654.1639   -27927.718     87357.82    1.0992725 
  136000     8661    281.30122    -212.0616   -32680.966    4840.6922            0   -32680.966            0            0    69546.415    6535.7264   -27840.274    87811.093    1.0935981 
  137000     8661    275.30451   -423.24088   -32827.236    4737.4995            0   -32827.236            0            0    69411.805    6527.3068   -28089.736    87637.012    1.0957704 
  138000     8661    280.51963    85.451292   -32846.643    4827.2425            0   -32846.643            0            0    69229.803    6684.4861   -28019.401    87314.849    1.0998135 
  139000     8661    281.70574    53.046449   -32834.144    4847.6533            0   -32834.144            0            0    69242.838    6690.0864   -27986.491    87134.233    1.1020932 
  140000     8661    276.13607    220.13285   -32901.918    4751.8092            0   -32901.918            0            0    69121.864    6743.2637   -28150.109    86904.137    1.1050112 
  141000     8661    275.27629   -234.19804    -32755.84     4737.014            0    -32755.84            0            0    69429.591    6578.3009   -28018.826    87894.182    1.0925643 
  142000     8661    282.04069    107.92157    -32894.01    4853.4172            0    -32894.01            0            0    69131.645    6743.1451   -28040.593    87614.364    1.0960537 
  143000     8661    278.76714   -439.72558   -32779.056    4797.0854            0   -32779.056            0            0    69478.943    6510.0584   -27981.971    88072.346    1.0903542 
  144000     8661    273.05633   -175.36761   -32728.756    4698.8125            0   -32728.756            0            0    69443.984    6595.1766   -28029.944    88123.096    1.0897262 
  145000     8661     275.4942    341.78233   -32815.442    4740.7639            0   -32815.442            0            0     69118.19    6835.9036   -28074.678    87690.191    1.0951059 
  146000     8661    275.85867   -16.923788   -32894.816    4747.0357            0   -32894.816            0            0    69196.134    6679.7919    -28147.78    87107.261    1.1024345 
  147000     8661    279.48297    365.17772   -32991.575    4809.4035            0   -32991.575            0            0    68930.513    6846.8674   -28182.172    86902.747    1.1050289 
  148000     8661    275.64795   -47.426414   -32886.908    4743.4096            0   -32886.908            0            0    69191.826    6688.3106   -28143.498    87620.287    1.0959796 
  149000     8661    275.14999    540.57086   -32960.878    4734.8405            0   -32960.878            0            0    68837.313    6968.0887   -28226.037    87604.591     1.096176 
  150000     8661    272.96603     227.7692   -32792.034    4697.2584            0   -32792.034            0            0    69210.305     6763.348   -28094.775    87581.363    1.0964667 
  151000     8661     281.8543   -173.52038   -32981.656    4850.2098            0   -32981.656            0            0    69125.328    6662.4777   -28131.447    87541.229    1.0969694 
  152000     8661    278.66853     338.8569   -32832.403    4795.3884            0   -32832.403            0            0    69125.845    6807.2828   -28037.014    87129.718    1.1021503 
  153000     8661    274.39704    102.77202   -32719.776    4721.8837            0   -32719.776            0            0    69387.823    6655.3221   -27997.892    87141.613    1.1019999 
  154000     8661    274.80254   -168.64511   -32883.669    4728.8615            0   -32883.669            0            0     69220.61    6662.7588   -28154.807    87959.999    1.0917468 
  155000     8661    274.99593   -335.62346   -32808.061    4732.1895            0   -32808.061            0            0    69419.643    6538.7831   -28075.872    88015.573    1.0910575 
  156000     8661    279.62145   -14.344043   -32799.977    4811.7864            0   -32799.977            0            0    69325.631    6642.4996    -27988.19    87725.211    1.0946688 
  157000     8661    279.53461    98.722907   -32752.838    4810.2921            0   -32752.838            0            0    69286.976    6726.0866   -27942.546     87578.83    1.0964984 
  158000     8661    274.26989     80.64792   -32978.709    4719.6956            0   -32978.709            0            0    69020.105    6765.9925   -28259.013    87402.379    1.0987121 
  159000     8661    273.56973   -5.6041542    -32799.31    4707.6471            0    -32799.31            0            0    69296.453    6669.8765   -28091.663    87533.731    1.0970633 
  160000     8661    277.42929   -160.74035   -32957.969    4774.0633            0   -32957.969            0            0    69164.029    6644.2033   -28183.906    87098.864    1.1025408 
  161000     8661     281.9505    178.23557   -33029.976    4851.8653            0   -33029.976            0            0    68912.381    6827.5824   -28178.111    87178.664    1.1015315 
  162000     8661    277.53511    220.08196   -32992.508    4775.8843            0   -32992.508            0            0      68952.1    6821.5655   -28216.624     87214.92    1.1010736 
  163000     8661    273.70281    93.538595   -32921.877    4709.9372            0   -32921.877            0            0    69087.106    6759.9513    -28211.94    87512.273    1.0973323 
  164000     8661    278.35481   -469.28269   -32875.192    4789.9899            0   -32875.192            0            0    69339.583    6552.6246   -28085.202    88133.665    1.0895955 
  165000     8661    278.91737   -55.076706   -33040.576    4799.6705            0   -33040.576            0            0    69007.928     6719.516   -28240.906    87051.408    1.1031418 
  166000     8661    277.58944   -490.14521   -32946.501    4776.8191            0   -32946.501            0            0     69316.77    6500.2654   -28169.682    86723.772    1.1073094 
  167000     8661     280.1644    21.945732   -32903.097    4821.1297            0   -32903.097            0            0    69159.649    6699.9659   -28081.967    87286.336    1.1001727 
  168000     8661    281.03205    102.06298   -32910.616    4836.0604            0   -32910.616            0            0    69200.354    6655.5386   -28074.556    86235.587     1.113578 
  169000     8661    278.18068    149.48196   -32915.849    4786.9934            0   -32915.849            0            0    69124.484    6729.2656   -28128.855     86926.27    1.1047299 
  170000     8661    274.35572    57.886924   -32952.385    4721.1726            0   -32952.385            0            0    69051.544     6766.213   -28231.212    87284.342    1.1001979 
  171000     8661    280.62373    123.64373   -32939.181    4829.0339            0   -32939.181            0            0    69043.416    6786.7179   -28110.147    87683.887    1.0951847 
  172000     8661    277.80255   -71.717206   -32996.423    4780.4865            0   -32996.423            0            0    69026.244    6743.3998   -28215.936    87738.151    1.0945073 
  173000     8661    284.20336   -166.54724   -32900.785     4890.633            0   -32900.785            0            0    69215.093    6645.3778   -28010.152    87511.926    1.0973367 
  174000     8661    277.23384   -192.99725    -32974.82    4770.6999            0    -32974.82            0            0    69207.268    6583.1172    -28204.12    86465.319    1.1106193 
  175000     8661    273.47852    459.65727   -33078.088    4706.0776            0   -33078.088            0            0    68786.884    6901.6862    -28372.01    86614.782    1.1087028 
  176000     8661    277.63266   -48.727415   -32945.128    4777.5628            0   -32945.128            0            0    69086.308    6734.5499   -28167.566    87397.779    1.0987699 
  177000     8661    280.85719   -9.2318642   -32758.172    4833.0514            0   -32758.172            0            0    69327.981    6681.7074    -27925.12    87698.215    1.0950057 
  178000     8661     271.8595    -231.3584   -32893.202    4678.2171            0   -32893.202            0            0     69300.41    6574.9222   -28214.985    86900.208    1.1050612 
  179000     8661    276.81555   -102.05248   -32739.826    4763.5019            0   -32739.826            0            0    69447.424    6578.1067   -27976.324    86968.148    1.1041979 
  180000     8661    280.31911    189.90234   -32814.343    4823.7918            0   -32814.343            0            0    69273.617    6671.2542   -27990.551    86560.674    1.1093958 
  181000     8661    278.49395   -103.88642   -32799.161    4792.3842            0   -32799.161            0            0    69349.669    6617.5874   -28006.776    87352.879    1.0993347 
  182000     8661    277.88133   -69.268693   -32704.339    4781.8421            0   -32704.339            0            0    69500.369    6561.3752   -27922.497     86875.15    1.1053799 
  183000     8661    277.42567   -127.09228   -32856.267     4774.001            0   -32856.267            0            0    69307.352    6604.0515   -28082.266    87450.516    1.0981073 
  184000     8661    278.53989   -131.77213   -32831.957    4793.1746            0   -32831.957            0            0    69337.681    6595.0684   -28038.783    87113.739    1.1023525 
  185000     8661    281.88571    71.524813   -32999.459    4850.7502            0   -32999.459            0            0    69065.575    6700.3309   -28148.709    86799.112    1.1063483 
  186000     8661    274.33079    100.37445   -32893.609    4720.7436            0   -32893.609            0            0    69167.471    6705.1483   -28172.866     86594.88    1.1089576 
  187000     8661    276.81741   -66.454674   -32833.489    4763.5339            0   -32833.489            0            0    69254.406    6680.1922   -28069.956     87637.59    1.0957632 
  188000     8661    273.85377   -132.12557   -32844.784    4712.5349            0   -32844.784            0            0    69280.337    6638.6762   -28132.249    87431.495    1.0983462 
  189000     8661    277.73093    120.57555   -32866.551     4779.254            0   -32866.551            0            0    69193.011    6708.9865   -28087.297    86926.606    1.1047256 
  190000     8661    277.97786   -175.48294   -32920.831    4783.5032            0   -32920.831            0            0    69176.435    6667.4514   -28137.328    87716.704    1.0947749 
  191000     8661    276.69989    49.705079   -32727.329    4761.5116            0   -32727.329            0            0    69419.949    6622.0546   -27965.818     86899.38    1.1050717 
  192000     8661     274.9396    146.97316   -32837.201    4731.2202            0   -32837.201            0            0    69221.524    6708.9674   -28105.981    87166.353    1.1016871 
  193000     8661    275.42599    53.993774   -32868.147      4739.59            0   -32868.147            0            0    69236.645    6665.2519   -28128.557    86623.115    1.1085961 
  194000     8661     277.3592   -72.789497   -32770.714    4772.8571            0   -32770.714            0            0    69409.529    6583.3395   -27997.857    86783.611    1.1065459 
  195000     8661    278.12946   -109.23996   -32916.538    4786.1119            0   -32916.538            0            0    69197.341    6652.8323   -28130.426    87180.084    1.1015136 
  196000     8661    278.67933    73.185561   -32716.199    4795.5742            0   -32716.199            0            0      69403.1    6644.1876   -27920.625    87420.164    1.0984885 
  197000     8661    280.11291   -310.72159   -32836.545    4820.2435            0   -32836.545            0            0    69427.393    6498.9141   -28016.301    87133.738    1.1020995 
  198000     8661    278.84532    295.38607   -32884.085    4798.4306            0   -32884.085            0            0    69066.369    6814.2894   -28085.654    87311.703    1.0998531 
  199000     8661    278.99812      110.316   -32911.751      4801.06            0   -32911.751            0            0    69095.186    6758.6589   -28110.691    87425.706    1.0984189 
  200000     8661    278.41481   -201.82396   -32660.668    4791.0224            0   -32660.668            0            0      69542.3    6562.5886   -27869.646    87834.212    1.0933103 
  201000     8661    272.16096   -391.36164   -32863.082    4683.4046            0   -32863.082            0            0    69351.454    6553.6811   -28179.677    87319.404    1.0997561 
  202000     8661    278.90192    187.81759   -32818.582    4799.4046            0   -32818.582            0            0    69209.027    6737.4297   -28019.178    87451.186    1.0980989 
  203000     8661    273.78463   -39.643686   -32822.571    4711.3451            0   -32822.571            0            0    69209.958     6732.366   -28111.226    88235.858    1.0883336 
  204000     8661    275.39895    281.34985   -32877.041    4739.1247            0   -32877.041            0            0    69055.492    6829.7372   -28137.917    87354.975    1.0993083 
  205000     8661    279.64575    345.19295   -32773.834    4812.2046            0   -32773.834            0            0    69194.284    6795.6733   -27961.629    87370.259     1.099116 
  206000     8661    275.65988   -243.17189   -32879.766    4743.6149            0   -32879.766            0            0    69249.356    6635.7734   -28136.152    87463.876    1.0979395 
  207000     8661    279.03018   -550.75039   -32696.759    4801.6118            0   -32696.759            0            0    69680.122    6388.6205   -27895.148    87729.087    1.0946204 
  208000     8661    284.30689    265.51457   -32756.058    4892.4145            0   -32756.058            0            0     69295.94    6718.9838   -27863.643    87468.933    1.0978761 
  209000     8661     276.8818    153.16031   -32922.203    4764.6419            0   -32922.203            0            0     69055.84    6787.6333   -28157.561    87463.255    1.0979473 
  210000     8661    277.02285   -97.231832   -32899.387    4767.0692            0   -32899.387            0            0    69179.516    6688.3428   -28132.317    87642.935    1.0956964 
  211000     8661    275.33364   -81.896831   -32872.931    4738.0009            0   -32872.931            0            0     69237.84    6656.1864    -28134.93    86975.616    1.1041031 
  212000     8661    283.86411   -87.661361   -32784.448     4884.795            0   -32784.448            0            0    69377.158    6605.9343   -27899.653    87307.846    1.0999017 
  213000     8661    273.74001   -432.76126   -32768.497    4710.5773            0   -32768.497            0            0    69542.717    6454.8225   -28057.919    87347.695    1.0993999 
  214000     8661    277.26873   -120.24379   -32656.891    4771.3003            0   -32656.891            0            0    69589.444    6521.0264   -27885.591    87012.056    1.1036407 
  215000     8661    272.78373    -162.4215   -32816.619    4694.1215            0   -32816.619            0            0    69335.362    6615.2411   -28122.498    87547.476    1.0968911 
  216000     8661    277.02978   -72.313773   -32749.011    4767.1884            0   -32749.011            0            0    69405.459    6616.9181   -27981.822    87332.293    1.0995938 
  217000     8661    272.75487   -146.93877   -32926.517    4693.6248            0   -32926.517            0            0    69186.349    6650.3798   -28232.892    87349.687    1.0993748 
  218000     8661    276.28424   -129.16962   -32887.605     4754.359            0   -32887.605            0            0    69204.136    6677.4877   -28133.246    87675.895    1.0952845 
  219000     8661    279.84806   -111.77382    -32894.94     4815.686            0    -32894.94            0            0    69206.052    6666.6717   -28079.254     87498.77    1.0975017 
  220000     8661     274.2495   -73.664925   -32894.759    4719.3448            0   -32894.759            0            0    69146.977    6725.5963   -28175.414    87937.855    1.0920217 
  221000     8661    278.01306    385.37857   -32986.555    4784.1088            0   -32986.555            0            0    68942.017    6839.2621   -28202.446    86705.855    1.1075382 
  222000     8661      279.773   -159.32156   -32946.171    4814.3944            0   -32946.171            0            0    69131.133    6690.4782   -28131.777    87987.441    1.0914063 
  223000     8661    279.06752   -301.13553    -32855.33    4802.2543            0    -32855.33            0            0    69307.316    6601.8756   -28053.076    87822.624    1.0934546 
  224000     8661    277.57887    536.04014   -32842.198    4776.6373            0   -32842.198            0            0    69018.669    6909.9653    -28065.56    87671.749    1.0953363 
  225000     8661    279.11496   -140.31061   -32898.549    4803.0706            0   -32898.549            0            0    69171.534    6693.9954   -28095.478    88289.188    1.0876762 
  226000     8661    273.97114   -457.86161   -32982.942    4714.5547            0   -32982.942            0            0     69214.78    6573.1942   -28268.388    87846.371     1.093159 
  227000     8661    279.18814   -102.50734    -33024.96    4804.3299            0    -33024.96            0            0    69006.548    6740.7199    -28220.63    87923.697    1.0921976 
  228000     8661    279.42353   -319.69121   -32878.125    4808.3805            0   -32878.125            0            0    69292.019     6595.902   -28069.744    87962.227    1.0917192 
  229000     8661    276.65297   -329.26504   -32787.775    4760.7042            0   -32787.775            0            0    69433.494    6546.8283   -28027.071    87930.173    1.0921171 
  230000     8661    277.15436    216.75957   -32772.381    4769.3321            0   -32772.381            0            0    69278.872    6718.8165   -28003.049    87407.957     1.098642 
  231000     8661    279.34606    110.52945   -32935.137    4807.0474            0   -32935.137            0            0    69074.768    6758.8361    -28128.09    87343.945    1.0994471 
  232000     8661    280.18414    361.35785   -32818.738    4821.4693            0   -32818.738            0            0    69146.467    6801.9681   -27997.269    87091.707    1.1026314 
  233000     8661    270.22332   -670.71139   -32878.445    4650.0614            0   -32878.445            0            0    69441.504    6444.4963   -28228.384    87677.513    1.0952643 
  234000     8661    286.55475    201.47688   -32868.269    4931.0961            0   -32868.269            0            0    69159.993     6738.747   -27937.173    87133.479    1.1021028 
  235000     8661    278.38851    7.0065759   -32739.383    4790.5698            0   -32739.383            0            0    69377.327    6647.0413   -27948.813    87527.426    1.0971424 
  236000     8661    277.89611   -280.55713   -32850.343    4782.0963            0   -32850.343            0            0    69322.737    6593.1953   -28068.246    87738.584    1.0945019 
  237000     8661    277.42575    -241.4025   -32816.461    4774.0024            0   -32816.461            0            0    69346.458    6601.7838   -28042.459    87555.525    1.0967903 
  238000     8661    282.23645    213.06004   -32800.729     4856.786            0   -32800.729            0            0    69216.481    6749.2911   -27943.943    87455.641    1.0980429 
  239000     8661    272.40502   -243.80411   -32837.765    4687.6045            0   -32837.765            0            0    69339.453     6588.279    -28150.16    87214.485    1.1010791 
  240000     8661    275.27914    398.07929   -32819.592     4737.063            0   -32819.592            0            0    69227.997    6718.7865   -28082.529    86089.333    1.1154698 
  241000     8661    278.32455   -366.46468   -32807.363    4789.4691            0   -32807.363            0            0    69461.983    6496.6957   -28017.894     86939.27    1.1045647 
  242000     8661    276.68908   -143.76368   -32824.161    4761.3256            0   -32824.161            0            0    69346.641    6595.6734   -28062.836    87221.156    1.1009949 
  243000     8661    280.03941   -211.75959   -32931.293    4818.9788            0   -32931.293            0            0    69221.212    6615.6631   -28112.314    87495.466    1.0975431 
