LAMMPS (3 Mar 2020)
Reading data file ...
  orthogonal box = (7.69646 7.69646 7.69646) to (52.3035 52.3035 52.3035)
  1 by 1 by 3 MPI processor grid
  reading atoms ...
  8661 atoms
  reading velocities ...
  8661 velocities
  scanning bonds ...
  1 = max bonds/atom
  scanning angles ...
  1 = max angles/atom
  reading bonds ...
  5774 bonds
  reading angles ...
  2887 angles
Finding 1-2 1-3 1-4 neighbors ...
  special bond factors lj:   0          0          0.5       
  special bond factors coul: 0          0          1         
  2 = max # of 1-2 neighbors
  1 = max # of 1-3 neighbors
  1 = max # of 1-4 neighbors
  5774 = # of 1-3 neighbors before angle trim
  5774 = # of 1-3 neighbors after angle trim
  5774 = # of 1-4 neighbors before dihedral trim
  0 = # of 1-4 neighbors after dihedral trim
  2 = max # of special neighbors
  special bonds CPU = 0.00137568 secs
  read_data CPU = 0.0658672 secs
8661 atoms in group water
0 atoms in group gly
WARNING: Ignoring 'compress yes' for molecular system (../delete_atoms.cpp:125)
Deleted 0 atoms, new total = 8661
Finding SHAKE clusters ...
  0 = # of size 2 clusters
  0 = # of size 3 clusters
  0 = # of size 4 clusters
  2887 = # of frozen angles
  find clusters CPU = 0.00112891 secs
PPPM initialization ...
  using 12-bit tables for long-range coulomb (../kspace.cpp:332)
  G vector (1/distance) = 0.186656
  grid = 16 16 16
  stencil order = 5
  estimated absolute RMS force accuracy = 0.0304818
  estimated relative force accuracy = 9.1795e-05
  using double precision KISS FFT
  3d grid and FFT values/proc = 4851 1536
Neighbor list info ...
  update every 1 steps, delay 10 steps, check yes
  max neighbors/atom: 2000, page size: 100000
  master list distance cutoff = 16
  ghost atom cutoff = 16
  binsize = 8, bins = 6 6 6
  1 neighbor lists, perpetual/occasional/extra = 1 0 0
  (1) pair lj/cut/coul/long, perpetual
      attributes: half, newton on
      pair build: half/bin/newton
      stencil: half/bin/3d/newton
      bin: standard
Setting up Verlet run ...
  Unit style    : real
  Current step  : 0
  Time step     : 1
Per MPI rank memory allocation (min/avg/max) = 27.4 | 27.79 | 28.2 Mbytes
Step Atoms Temp Press PotEng KinEng E_bond E_pair E_angle E_dihed E_coul E_vdwl TotEng Volume Density 
       0     8661    299.78535   -28.193649   -31792.759    5158.7712            0   -31792.759            0            0    70703.285    6264.9291   -26633.988    88758.767    1.0819218 
    1000     8661    280.81521    210.54298   -32397.582     4832.329            0   -32397.582            0            0    69848.691    6522.0544   -27565.253    87041.075    1.1032728 
    2000     8661    285.37501    406.37478   -32578.852    4910.7949            0   -32578.852            0            0    69472.029    6707.3239   -27668.057    87052.144    1.1031325 
    3000     8661    278.63193    145.73885   -32605.116    4794.7585            0   -32605.116            0            0    69533.469    6623.1746   -27810.358    87592.157    1.0963316 
    4000     8661    285.46119    122.28669   -32604.315    4912.2779            0   -32604.315            0            0    69551.957    6611.7427   -27692.038     87263.05    1.1004663 
    5000     8661    285.58576   -271.22341   -32484.221    4914.4216            0   -32484.221            0            0    69902.006    6378.4992   -27569.799    87161.953    1.1017427 
    6000     8661    287.03256    128.82761   -32646.531    4939.3184            0   -32646.531            0            0    69544.648    6577.2506   -27707.212    86734.845     1.107168 
    7000     8661     279.9747    499.59578   -32476.511    4817.8653            0   -32476.511            0            0    69626.928     6665.517   -27658.646    86565.253    1.1093371 
    8000     8661    283.03513   -168.68534   -32643.495    4870.5297            0   -32643.495            0            0    69571.568    6552.0007   -27772.965    87835.989    1.0932882 
    9000     8661    281.16984   -186.42598   -32610.931    4838.4314            0   -32610.931            0            0    69644.915    6512.3387   -27772.499    87589.012    1.0963709 
   10000     8661    283.27442   -146.64244   -32615.053    4874.6475            0   -32615.053            0            0    69620.329    6529.6528   -27740.405    87470.295     1.097859 
   11000     8661    287.79815    -250.0737   -32531.873    4952.4928            0   -32531.873            0            0    69816.192    6417.1324   -27579.381    87462.406     1.097958 
   12000     8661    281.22668   -119.24455   -32526.325    4839.4096            0   -32526.325            0            0    69738.689    6502.7149   -27686.915    87632.721    1.0958241 
   13000     8661    284.76671    250.87294   -32670.526    4900.3272            0   -32670.526            0            0     69415.92    6680.3182   -27770.198    87211.999    1.1011105 
   14000     8661    283.96849   -236.77643   -32519.223    4886.5912            0   -32519.223            0            0    69805.009    6441.0834   -27632.632    87252.662    1.1005973 
   15000     8661     282.3481   -163.39941   -32636.818    4858.7072            0   -32636.818            0            0    69616.132    6507.7703   -27778.111    87211.935    1.1011113 
   16000     8661    277.62135   -356.21151     -32556.4    4777.3683            0     -32556.4            0            0    69764.456    6444.0539   -27779.031    87656.711    1.0955242 
   17000     8661    284.00546    159.54238    -32708.92    4887.2274            0    -32708.92            0            0    69367.418    6694.7651   -27821.692    87666.469    1.0954023 
   18000     8661    277.69412   -249.14833   -32627.938    4778.6205            0   -32627.938            0            0    69612.356    6530.2098   -27849.318    87850.868     1.093103 
   19000     8661    283.44582    -221.5852   -32678.616    4877.5969            0   -32678.616            0            0    69526.809    6558.6686   -27801.019    88017.817    1.0910297 
   20000     8661     283.9212    269.81674   -32700.861    4885.7775            0   -32700.861            0            0    69330.193    6733.0076   -27815.083    87410.862    1.0986054 
   21000     8661    286.65137    222.08892   -32651.147    4932.7588            0   -32651.147            0            0    69447.115    6670.4054   -27718.388    87539.617    1.0969896 
   22000     8661    284.02529    97.406628   -32770.521    4887.5687            0   -32770.521            0            0    69337.643    6659.7845   -27882.952    87298.284    1.1000222 
   23000     8661    282.87646    33.262614   -32699.769    4867.7994            0   -32699.769            0            0    69468.463    6602.4599    -27831.97    87069.727    1.1029097 
   24000     8661     277.7394   -281.96835   -32635.686    4779.3997            0   -32635.686            0            0     69639.18    6488.9986   -27856.286    87727.662    1.0946382 
   25000     8661    281.55138     346.6052   -32653.121     4844.997            0   -32653.121            0            0    69402.194    6712.5871   -27808.124    87492.461    1.0975808 
   26000     8661    281.29651   -16.335375   -32569.348    4840.6112            0   -32569.348            0            0    69635.006    6561.1979   -27728.737    87236.346    1.1008032 
   27000     8661    281.49919    104.87422   -32473.424    4844.0989            0   -32473.424            0            0    69699.815    6592.3364   -27629.325    87611.697    1.0960871 
   28000     8661     284.8956   -95.941698   -32524.613    4902.5451            0   -32524.613            0            0    69736.092    6505.5351   -27622.068    87688.488    1.0951272 
   29000     8661     283.7734    193.33145   -32549.549    4883.2341            0   -32549.549            0            0     69589.06    6628.6894   -27666.314    87433.177     1.098325 
   30000     8661    274.60254   -92.624059   -32640.961    4725.4199            0   -32640.961            0            0     69575.73    6547.1394   -27915.541    87344.184    1.0994441 
   31000     8661    281.28858   -282.88245   -32688.889    4840.4747            0   -32688.889            0            0    69486.866    6588.8469   -27848.414    88437.397    1.0858534 
   32000     8661    284.33564   -299.03479   -32729.859    4892.9092            0   -32729.859            0            0    69426.391    6606.4162    -27836.95    88896.648    1.0802438 
   33000     8661    281.31569   -75.031904    -32734.67    4840.9413            0    -32734.67            0            0    69401.597    6634.2192   -27893.729    88273.988    1.0878635 
   34000     8661    287.45242    319.55763   -32713.654    4946.5434            0   -32713.654            0            0    69230.239    6821.8147   -27767.111    88122.811    1.0897297 
   35000     8661    281.10337   -92.903119   -32669.166    4837.2876            0   -32669.166            0            0    69467.867    6629.6044   -27831.879    88300.471    1.0875372 
   36000     8661    286.73998   -1.5157452   -32653.965    4934.2837            0   -32653.965            0            0     69510.56    6600.6039   -27719.681    87533.963    1.0970604 
   37000     8661    282.66787   -242.60265    -32599.87    4864.2099            0    -32599.87            0            0    69674.782    6489.4647    -27735.66    87778.843    1.0939999 
   38000     8661    282.96483   -65.339894   -32677.548      4869.32            0   -32677.548            0            0    69483.021     6604.928   -27808.228     87669.94    1.0953589 
   39000     8661    277.28849   -639.43311   -32714.567    4771.6404            0   -32714.567            0            0    69648.569    6404.6655   -27942.927    87969.618    1.0916274 
   40000     8661    279.18786   -45.700309   -32737.386    4804.3251            0   -32737.386            0            0    69439.021    6590.0616   -27933.061    86990.587    1.1039131 
   41000     8661    279.65388    68.944001   -32545.518    4812.3445            0   -32545.518            0            0    69635.743     6581.883   -27733.174    87475.968    1.0977878 
   42000     8661    287.70934   -123.21613   -32509.589    4950.9645            0   -32509.589            0            0    69793.858    6464.6561   -27558.624    87181.788    1.1014921 
   43000     8661    283.94861   -213.37724   -32542.462    4886.2492            0   -32542.462            0            0    69804.209    6421.5163   -27656.213    86939.508    1.1045617 
   44000     8661    286.12546    134.68326   -32546.982    4923.7088            0   -32546.982            0            0    69628.741    6591.1237   -27623.274    87351.749    1.0993489 
   45000     8661    284.52255    364.81966   -32498.602    4896.1256            0   -32498.602            0            0    69618.421     6649.103   -27602.476    86897.648    1.1050938 
   46000     8661    283.60876    208.94982   -32619.717    4880.4009            0   -32619.717            0            0    69569.985    6577.8736   -27739.316     86542.36    1.1096306 
   47000     8661    279.04364    54.185793   -32609.577    4801.8434            0   -32609.577            0            0     69613.94    6542.3275   -27807.734    86630.993    1.1084953 
   48000     8661    280.99957   -383.82789   -32515.777    4835.5014            0   -32515.777            0            0    69889.662    6360.3868   -27680.276     87062.59    1.1030001 
   49000     8661     284.5682    288.86425   -32563.526    4896.9112            0   -32563.526            0            0    69513.372    6687.5185   -27666.614    87906.253    1.0924143 
   50000     8661    283.96444  -0.68718502   -32498.668    4886.5215            0   -32498.668            0            0    69699.248    6565.3349   -27612.146    87815.136    1.0935478 
   51000     8661    279.47276   -119.00432   -32636.889    4809.2277            0   -32636.889            0            0    69569.884    6564.8811   -27827.662    87721.753    1.0947119 
   52000     8661     282.5472    212.89868   -32630.203    4862.1334            0   -32630.203            0            0    69516.254    6620.1069    -27768.07    86891.438    1.1051727 
   53000     8661     276.9313   -133.11219   -32591.816    4765.4938            0   -32591.816            0            0    69656.331    6520.7632   -27826.322    87807.565    1.0936421 
   54000     8661    282.92266    351.97266   -32622.916    4868.5943            0   -32622.916            0            0    69397.503    6747.2667   -27754.322    87692.404    1.0950783 
   55000     8661    281.99638    127.12697   -32625.504    4852.6548            0   -32625.504            0            0    69481.537     6658.232   -27772.849    87913.863    1.0923197 
   56000     8661    282.20694    -270.5151   -32524.676    4856.2781            0   -32524.676            0            0    69765.813    6476.0317   -27668.398    88272.691    1.0878795 
   57000     8661    277.08037    186.48366   -32532.537    4768.0589            0   -32532.537            0            0    69596.327    6633.0976   -27764.478    87553.643    1.0968138 
   58000     8661    282.01271    344.65032   -32439.559    4852.9358            0   -32439.559            0            0     69677.22    6654.9342   -27586.624    87848.677    1.0931303 
   59000     8661    288.73787    53.110035   -32530.757    4968.6637            0   -32530.757            0            0    69661.229     6576.104   -27562.093    87661.623    1.0954628 
   60000     8661     283.0233    290.66719   -32666.726    4870.3262            0   -32666.726            0            0    69366.343    6733.9509     -27796.4    87870.447    1.0928594 
   61000     8661    284.41862   -147.52536   -32496.664    4894.3371            0   -32496.664            0            0    69777.295    6491.5686   -27602.327    87809.884    1.0936132 
   62000     8661    279.39385    268.73878   -32669.082    4807.8699            0   -32669.082            0            0    69423.454    6674.7281   -27861.212    86998.607    1.1038113 
   63000     8661    284.43783   -43.373309   -32636.697    4894.6677            0   -32636.697            0            0    69543.221    6589.6411   -27742.029    87875.002    1.0928028 
   64000     8661    286.95183    79.242092    -32636.76    4937.9293            0    -32636.76            0            0    69532.461    6597.9323   -27698.831    87389.929    1.0988686 
   65000     8661    284.06166    187.82412   -32595.573    4888.1945            0   -32595.573            0            0    69457.972     6709.249   -27707.379    88045.368    1.0906882 
   66000     8661    287.79075    222.50852   -32638.637    4952.3656            0   -32638.637            0            0     69442.41    6683.0639   -27686.272    87579.052    1.0964956 
   67000     8661    282.96434    10.710574   -32624.993    4869.3116            0   -32624.993            0            0    69564.683     6573.423   -27755.682    87366.239    1.0991666 
   68000     8661    284.20397    -553.9409   -32613.189    4890.6434            0   -32613.189            0            0    69752.813    6405.1939   -27722.545    88052.401    1.0906011 
   69000     8661    277.97595    200.53145   -32585.115    4783.4703            0   -32585.115            0            0      69452.3    6729.8913   -27801.645    88693.541    1.0827175 
   70000     8661    279.88992    190.68103   -32782.153    4816.4064            0   -32782.153            0            0    69235.328    6748.0163   -27965.746    87670.073    1.0953572 
   71000     8661    284.81273    13.102954   -32661.941    4901.1191            0   -32661.941            0            0    69472.146    6633.5351   -27760.822    88050.716     1.090622 
   72000     8661    289.91061   -306.04991   -32602.726    4988.8446            0   -32602.726            0            0    69669.843    6496.2329   -27613.882      88033.9    1.0908303 
   73000     8661    287.31553     444.2491   -32575.038    4944.1878            0   -32575.038            0            0    69462.779    6729.9775   -27630.851    87584.902    1.0964224 
   74000     8661    283.97553    24.602888   -32540.668    4886.7124            0   -32540.668            0            0    69641.254    6584.7694   -27653.955    87985.113    1.0914352 
   75000     8661     285.7948   -130.01781   -32575.784    4918.0188            0   -32575.784            0            0    69647.525     6542.387   -27657.766    88157.324    1.0893031 
   76000     8661    282.40655   -183.89036   -32502.249    4859.7131            0   -32502.249            0            0    69752.653    6513.0553   -27642.536    88191.035    1.0888867 
   77000     8661    280.23044   -369.45604   -32628.875    4822.2661            0   -32628.875            0            0    69697.665     6438.557   -27806.609    87497.799    1.0975139 
   78000     8661    282.63581   -161.84678    -32534.57    4863.6581            0    -32534.57            0            0    69718.696    6513.0261   -27670.912    88066.898    1.0904216 
   79000     8661    285.47784   -237.58759   -32531.761    4912.5644            0   -32531.761            0            0     69807.84    6427.9944   -27619.197    87375.352    1.0990519 
   80000     8661    285.62874   -110.68588   -32630.969    4915.1611            0   -32630.969            0            0    69580.336    6556.6105   -27715.808    87586.585    1.0964013 
   81000     8661    283.74865    103.94669   -32655.269    4882.8081            0   -32655.269            0            0    69438.962    6668.2644   -27772.461    87523.516    1.0971914 
   82000     8661    284.31758   -218.75564   -32558.266    4892.5985            0   -32558.266            0            0    69676.923    6531.0196   -27665.667    88253.907     1.088111 
   83000     8661     282.6179   -380.40957   -32567.866    4863.3501            0   -32567.866            0            0    69728.716    6470.1616   -27704.516    88190.294    1.0888959 
   84000     8661    281.00895    586.17383   -32611.812    4835.6628            0   -32611.812            0            0    69397.582     6758.133   -27776.149    86945.805    1.1044817 
   85000     8661    280.67761     -275.117   -32700.413     4829.961            0   -32700.413            0            0    69541.696    6526.1942   -27870.452    87758.301     1.094256 
   86000     8661    287.49346   -212.81493   -32718.416    4947.2497            0   -32718.416            0            0    69518.261    6531.9079   -27771.166    87408.207    1.0986388 
   87000     8661    283.77335    46.535913   -32725.404    4883.2332            0   -32725.404            0            0     69403.25    6636.2521   -27842.171    87290.982    1.1001142 
   88000     8661    281.98369    310.52957   -32675.302    4852.4364            0   -32675.302            0            0     69353.73    6736.7375   -27822.866    87285.653    1.1001814 
   89000     8661    278.99837    265.03022   -32630.825    4801.0644            0   -32630.825            0            0    69492.248    6642.5244   -27829.761    86573.485    1.1092316 
   90000     8661    283.89039    259.95877   -32651.561    4885.2472            0   -32651.561            0            0    69430.465    6682.9742   -27766.314    86993.129    1.1038808 
   91000     8661    286.73992    27.087056   -32556.508    4934.2825            0   -32556.508            0            0    69628.944    6580.6904   -27622.225    87465.896    1.0979142 
   92000     8661     283.7421   -175.60069   -32620.229    4882.6955            0   -32620.229            0            0    69624.455    6519.5428   -27737.534    87900.097    1.0924908 
   93000     8661    283.53242   -33.492973   -32627.938    4879.0873            0   -32627.938            0            0    69547.705    6590.7355   -27748.851    87926.858    1.0921583 
   94000     8661    279.87196   -100.27912   -32765.344    4816.0973            0   -32765.344            0            0    69394.161    6607.5574   -27949.247    87313.886    1.0998256 
   95000     8661    283.02693    55.241401   -32542.516    4870.3887            0   -32542.516            0            0    69675.998    6546.0978   -27672.127    87228.519     1.100902 
   96000     8661    288.40735    39.330478   -32551.776     4962.976            0   -32551.776            0            0    69606.534    6609.2786     -27588.8    87987.808    1.0914017 
   97000     8661    283.91083   -92.476526   -32689.313    4885.5991            0   -32689.313            0            0    69462.754    6612.1444   -27803.714    88165.384    1.0892035 
   98000     8661    285.24349   -121.76484   -32640.462    4908.5317            0   -32640.462            0            0    69598.678    6526.5892    -27731.93    87730.552    1.0946021 
   99000     8661    282.72938    349.45742   -32534.447    4865.2684            0   -32534.447            0            0    69563.837    6668.6092   -27669.178    87331.674    1.0996016 
  100000     8661    277.73963    72.227215   -32592.175    4779.4037            0   -32592.175            0            0    69560.497    6615.9771   -27812.772    87353.027    1.0993328 
  101000     8661    277.69876    52.274498   -32517.402    4778.7003            0   -32517.402            0            0    69657.428    6594.0859   -27738.702    87483.761      1.09769 
  102000     8661    285.17304    50.137767   -32747.042    4907.3193            0   -32747.042            0            0    69406.853    6615.5203   -27839.723    87321.497    1.0997298 
  103000     8661    287.31506    250.48196   -32606.076    4944.1797            0   -32606.076            0            0    69462.044    6697.2759   -27661.897    87873.069    1.0928268 
  104000     8661    274.68418    35.314856   -32556.046    4726.8248            0   -32556.046            0            0    69571.838    6637.6028   -27829.221    88040.604    1.0907473 
  105000     8661    279.78172   -118.01497   -32637.461    4814.5444            0   -32637.461            0            0     69524.66    6603.7171   -27822.917    88082.397    1.0902297 
  106000     8661    284.70146    -336.7642   -32638.792    4899.2043            0   -32638.792            0            0    69646.623    6478.8491   -27739.588    87786.207    1.0939082 
  107000     8661    282.50225   -210.17969   -32540.792    4861.3599            0   -32540.792            0            0    69704.483    6517.7614   -27679.432    88397.973    1.0863377 
  108000     8661    285.83087   -12.250642    -32689.15    4918.6395            0    -32689.15            0            0    69472.952     6603.676    -27770.51    87691.221    1.0950931 
  109000     8661    285.33517    103.70919   -32594.711    4910.1093            0   -32594.711            0            0    69581.496    6589.9172   -27684.602    87605.861    1.0961601 
  110000     8661    286.87132    58.683265   -32613.882    4936.5437            0   -32613.882            0            0    69528.778    6621.5661   -27677.339    87774.802    1.0940503 
  111000     8661    280.35117   -242.13978   -32518.031    4824.3436            0   -32518.031            0            0    69764.728    6482.1499   -27693.688    88034.267    1.0908258 
  112000     8661    281.83118   -199.72291   -32565.012     4849.812            0   -32565.012            0            0    69718.573    6481.5049     -27715.2    87788.622    1.0938781 
  113000     8661    283.55878   -248.85004   -32560.427    4879.5409            0   -32560.427            0            0    69702.349    6501.2766   -27680.886    88100.304    1.0900081 
  114000     8661    282.35553    11.076038   -32631.396     4858.835            0   -32631.396            0            0    69536.593    6598.6048   -27772.561     87624.34    1.0959289 
  115000     8661    282.39361    398.44863    -32562.74    4859.4904            0    -32562.74            0            0    69464.094    6736.7937    -27703.25    87556.251    1.0967812 
  116000     8661    286.04798   -137.68021   -32747.775    4922.3755            0   -32747.775            0            0    69433.537    6580.0937     -27825.4     87566.28    1.0966556 
  117000     8661    285.08851   -50.082963   -32659.136    4905.8648            0   -32659.136            0            0    69577.135    6529.1345   -27753.271    87084.544    1.1027221 
  118000     8661     286.2474    328.25897   -32550.528    4925.8072            0   -32550.528            0            0    69568.899    6646.4569   -27624.721     87092.39    1.1026227 
  119000     8661    284.31122   -379.15305   -32612.122    4892.4889            0   -32612.122            0            0    69717.366    6438.7737   -27719.633    87568.993    1.0966216 
  120000     8661     281.2681    80.863356   -32548.599    4840.1224            0   -32548.599            0            0    69646.033    6574.9805   -27708.477    87426.112    1.0984138 
  121000     8661    283.37842    243.59476   -32533.356    4876.4372            0   -32533.356            0            0    69588.608    6643.3575   -27656.919    87514.729    1.0973016 
  122000     8661    278.74606   -598.12473   -32653.531    4796.7226            0   -32653.531            0            0    69729.818    6383.1126   -27856.808    87873.922    1.0928162 
  123000     8661    283.27313    106.33628   -32679.354    4874.6253            0   -32679.354            0            0    69405.483    6679.5425   -27804.728    87900.395    1.0924871 
  124000     8661    281.87003   -46.122308   -32693.238    4850.4805            0   -32693.238            0            0    69443.483    6628.6965   -27842.757    87863.602    1.0929446 
  125000     8661    283.82396    47.251887   -32719.671    4884.1042            0   -32719.671            0            0    69427.757     6620.156   -27835.567     87304.31    1.0999462 
  126000     8661    281.85613    263.62277   -32628.775    4850.2413            0   -32628.775            0            0    69426.628     6712.056   -27778.534    87821.563    1.0934678 
  127000     8661    281.31755   -199.85458    -32484.02    4840.9733            0    -32484.02            0            0    69772.292    6502.8787   -27643.047    88221.328    1.0885128 
  128000     8661    285.93878   -378.33387   -32567.348    4920.4964            0   -32567.348            0            0    69788.451    6411.3135   -27646.852    87424.068    1.0984395 
  129000     8661    284.40189    22.742625   -32548.242    4894.0493            0   -32548.242            0            0    69681.288    6540.3631   -27654.193    87148.018    1.1019189 
  130000     8661    280.76235    181.78545   -32557.977    4831.4192            0   -32557.977            0            0    69623.419    6583.6281   -27726.558    86924.242    1.1047557 
  131000     8661    282.52567     43.22906   -32651.421    4861.7629            0   -32651.421            0            0    69488.095    6628.1582   -27789.658    87857.285    1.0930232 
  132000     8661    280.12103     106.0015    -32583.56    4820.3832            0    -32583.56            0            0    69590.968    6590.4834   -27763.177    87443.094    1.0982005 
  133000     8661    283.56569    190.78837   -32488.377    4879.6598            0   -32488.377            0            0    69716.348    6557.6765   -27608.717    86991.523    1.1039012 
  134000     8661    284.98629    37.578502   -32678.883    4904.1057            0   -32678.883            0            0    69475.417    6605.5795   -27774.778    87380.881    1.0989824 
  135000     8661    283.82387    127.10128   -32640.498    4884.1026            0   -32640.498            0            0    69481.715     6643.689   -27756.396    87494.054    1.0975608 
  136000     8661    282.66877    222.52919   -32562.831    4864.2254            0   -32562.831            0            0    69579.735    6624.2513   -27698.606    87361.668    1.0992241 
  137000     8661    287.90635   -69.197926   -32481.458    4954.3548            0   -32481.458            0            0    69815.679    6468.7736   -27527.103    87373.696    1.0990727 
  138000     8661      285.003    243.31669   -32513.933    4904.3933            0   -32513.933            0            0    69629.483     6622.296    -27609.54    87527.497    1.0971415 
  139000     8661    280.06566    21.028617   -32585.515    4819.4304            0   -32585.515            0            0    69613.035    6567.7856   -27766.085    87476.389    1.0977825 
  140000     8661    281.46992   -108.67633   -32537.606    4843.5953            0   -32537.606            0            0    69719.294    6507.5016   -27694.011    87483.356    1.0976951 
  141000     8661    280.24513   -138.79193    -32590.44    4822.5189            0    -32590.44            0            0    69687.867    6486.2867   -27767.921    86979.632    1.1040521 
  142000     8661    282.67754   -168.32968   -32708.189    4864.3762            0   -32708.189            0            0    69511.367    6547.8041   -27843.813    87232.932    1.1008463 
  143000     8661    281.76281   -110.69939   -32544.428    4848.6354            0   -32544.428            0            0    69684.311     6535.323   -27695.793    87431.863    1.0983416 
  144000     8661    284.74997   -115.22681   -32576.785    4900.0392            0   -32576.785            0            0    69662.342    6526.2919   -27676.746    87518.951    1.0972486 
  145000     8661    284.56261     65.13915   -32661.008     4896.815            0   -32661.008            0            0    69473.201    6635.7822   -27764.193    87860.369    1.0929848 
  146000     8661    281.49811   -198.06949    -32767.12    4844.0805            0    -32767.12            0            0    69408.792    6591.6545    -27923.04    87724.019    1.0946836 
  147000     8661    286.57349    217.05551    -32752.33    4931.4186            0    -32752.33            0            0    69256.202     6756.278   -27820.912    87800.936    1.0937247 
  148000     8661    284.33456    -309.8469   -32672.004    4892.8907            0   -32672.004            0            0    69649.596    6446.4712   -27779.114    87346.568    1.0994141 
  149000     8661    279.06673   -308.22936    -32778.95    4802.2408            0    -32778.95            0            0    69449.478    6540.0459   -27976.709    87968.221    1.0916448 
  150000     8661    285.43888    354.05643   -32592.197     4911.894            0   -32592.197            0            0    69505.811    6664.9484   -27680.303    87118.103    1.1022973 
  151000     8661     281.7503    118.61229   -32698.125    4848.4201            0   -32698.125            0            0    69409.283     6662.244   -27849.705    87343.793     1.099449 
  152000     8661     280.7848   -209.33034   -32511.261    4831.8055            0   -32511.261            0            0     69801.22    6453.2406   -27679.456    87670.803    1.0953481 
  153000     8661    282.98827    278.68298   -32498.798    4869.7234            0   -32498.798            0            0    69652.456    6616.2576   -27629.075     87098.17    1.1025495 
  154000     8661    277.80172   -190.06251   -32532.307    4780.4721            0   -32532.307            0            0     69746.77    6490.9375   -27751.835    87675.302    1.0952919 
  155000     8661    283.66534    276.06406   -32435.487    4881.3745            0   -32435.487            0            0    69773.556    6555.0495   -27554.113    86845.645    1.1057555 
  156000     8661     286.7056   -84.973482   -32602.908    4933.6919            0   -32602.908            0            0    69639.345     6521.008   -27669.216    87416.632    1.0985329 
  157000     8661    275.09047   -75.206849    -32433.33    4733.8164            0    -32433.33            0            0    69864.511    6469.8345   -27699.514    87706.305    1.0949047 
  158000     8661    286.08981    -315.6905   -32517.064    4923.0953            0   -32517.064            0            0    69865.883    6377.7723   -27593.969    87576.397    1.0965289 
  159000     8661    287.29801   -170.13249   -32447.384    4943.8864            0   -32447.384            0            0    69873.213    6445.4987   -27503.498    87630.948    1.0958463 
  160000     8661    285.24319    68.387223   -32524.953    4908.5266            0   -32524.953            0            0    69677.705    6564.1858   -27616.427    87588.105    1.0963823 
  161000     8661    282.43273    54.061876   -32664.282    4860.1636            0   -32664.282            0            0     69518.64    6583.8443   -27804.118     87288.03    1.1001514 
  162000     8661     281.2558   -175.16716   -32512.906    4839.9106            0   -32512.906            0            0    69758.014    6499.2942   -27672.995    87575.859    1.0965356 
  163000     8661    284.01262    15.573895   -32737.281    4887.3507            0   -32737.281            0            0    69431.794    6598.4624   -27849.931    86757.913    1.1068737 
  164000     8661    279.37533    391.80825   -32670.066    4807.5512            0   -32670.066            0            0    69374.909     6720.872   -27862.515    86845.735    1.1057543 
  165000     8661     285.6279   -84.820778   -32803.851    4915.1467            0   -32803.851            0            0    69332.992    6628.5775   -27888.705    87177.112    1.1015511 
  166000     8661      283.712    108.21568    -32517.06    4882.1775            0    -32517.06            0            0    69633.532    6613.9468   -27634.883    87898.864    1.0925061 
  167000     8661    283.73453   -257.41389   -32711.902    4882.5652            0   -32711.902            0            0     69518.88    6535.4168   -27829.337    88016.347    1.0910479 
  168000     8661    286.44357     1.706832    -32554.32     4929.183            0    -32554.32            0            0    69635.576    6573.7665   -27625.137    87701.698    1.0949622 
  169000     8661    280.26893   -175.72187   -32531.808    4822.9284            0   -32531.808            0            0    69750.353    6481.8908    -27708.88    87673.694     1.095312 
  170000     8661    284.05372   -28.590541   -32552.928    4888.0579            0   -32552.928            0            0     69638.24    6572.7099    -27664.87    88059.838     1.090509 
  171000     8661     285.7437    361.89273   -32629.238    4917.1394            0   -32629.238            0            0     69410.61    6725.0115   -27712.098    87158.176    1.1017905 
  172000     8661     280.5121   -36.972901   -32596.962    4827.1129            0   -32596.962            0            0    69629.703    6540.4558   -27769.849    87186.679    1.1014303 
  173000     8661    277.02617    77.421066    -32598.88    4767.1262            0    -32598.88            0            0     69582.83    6581.0144   -27831.753    87385.459    1.0989248 
  174000     8661    287.49598    13.568463   -32554.907     4947.293            0   -32554.907            0            0    69627.694    6587.4364   -27607.614    87851.125    1.0930998 
  175000     8661    287.91966   -54.453067   -32556.046    4954.5838            0   -32556.046            0            0    69727.711    6483.8414   -27601.463    87105.967    1.1024509 
  176000     8661    278.94662    -21.44606   -32590.813    4800.1738            0   -32590.813            0            0    69609.404    6564.6181   -27790.639    87556.677    1.0967758 
  177000     8661    282.48186    548.31059   -32616.633     4861.009            0   -32616.633            0            0    69425.086    6729.3282   -27755.624    86833.786    1.1059065 
  178000     8661    286.55957    66.135965   -32602.542    4931.1792            0   -32602.542            0            0    69575.017    6588.6489   -27671.363    87309.917    1.0998756 
  179000     8661    286.95266    200.72822    -32555.03    4937.9434            0    -32555.03            0            0    69563.847    6646.3949   -27617.086    87808.929    1.0936251 
  180000     8661    282.10352    86.640252   -32649.017    4854.4984            0   -32649.017            0            0    69498.637    6619.6931   -27794.518    87400.047    1.0987414 
  181000     8661    282.36966   -67.822492   -32585.575    4859.0781            0   -32585.575            0            0    69635.936    6547.2887   -27726.496    87601.094    1.0962197 
  182000     8661    291.02699    -58.93449   -32454.043    5008.0555            0   -32454.043            0            0    69847.832    6465.9812   -27445.988    87328.017    1.0996476 
  183000     8661     282.7198   -203.53127   -32631.809    4865.1035            0   -32631.809            0            0    69630.983    6506.4173   -27766.706    87231.197    1.1008682 
  184000     8661    274.74397    140.36239   -32457.293    4727.8536            0   -32457.293            0            0    69748.496    6559.6071   -27729.439     87199.51    1.1012682 
  185000     8661    282.60393   -108.06009    -32582.68    4863.1095            0    -32582.68            0            0    69643.071    6536.2823   -27719.571    87404.486    1.0986856 
  186000     8661     283.4521    154.53074   -32612.058    4877.7052            0   -32612.058            0            0     69536.17    6616.4656   -27734.352    87150.358    1.1018893 
  187000     8661    278.48834   -347.50853    -32574.42    4792.2875            0    -32574.42            0            0    69763.218     6428.895   -27782.132    87514.964    1.0972986 
  188000     8661    285.46698   -111.14566   -32504.109    4912.3776            0   -32504.109            0            0    69701.027    6559.7042   -27591.731    88243.225    1.0882427 
  189000     8661     284.7601    267.85959   -32545.112    4900.2135            0   -32545.112            0            0    69541.444    6678.5438   -27644.898    87638.816    1.0957479 
  190000     8661    284.30868   -309.31055   -32534.927    4892.4453            0   -32534.927            0            0    69765.691    6469.3693   -27642.482    87973.869    1.0915747 
  191000     8661    276.16669   -19.313266   -32586.235    4752.3362            0   -32586.235            0            0    69616.065    6563.9563   -27833.899    87430.631     1.098357 
  192000     8661    279.14272    251.87703   -32572.868    4803.5483            0   -32572.868            0            0    69524.749    6669.8628    -27769.32    87408.779    1.0986316 
  193000     8661    284.42314    261.69902    -32588.54    4894.4149            0    -32588.54            0            0      69523.1     6657.625   -27694.125    87659.989    1.0954832 
  194000     8661    277.50358   -93.776345   -32672.292    4775.3417            0   -32672.292            0            0    69503.462    6591.9376   -27896.951    87469.932    1.0978635 
  195000     8661    280.87668    248.77692    -32611.37    4833.3866            0    -32611.37            0            0    69505.071    6649.3909   -27777.984    87376.738    1.0990345 
  196000     8661     285.0394   -113.39757    -32470.48    4905.0196            0    -32470.48            0            0    69836.239    6458.8811    -27565.46    87295.347    1.1000592 
  197000     8661    277.98703   -141.77186   -32369.116     4783.661            0   -32369.116            0            0    69933.764    6462.6905   -27585.455    88191.481    1.0888812 
  198000     8661     276.9396   -335.94064    -32543.98    4765.6366            0    -32543.98            0            0    69766.326    6457.2707   -27778.343    88106.461     1.089932 
  199000     8661    288.48704    265.13546   -32592.934    4964.3475            0   -32592.934            0            0    69521.964    6651.9534   -27628.586    87563.926     1.096685 
  200000     8661    279.07166   -228.98263    -32689.88    4802.3255            0    -32689.88            0            0    69524.516    6549.6093   -27887.555     87871.38    1.0928478 
  201000     8661    282.12231   -161.43215   -32430.684    4854.8217            0   -32430.684            0            0    69858.508     6472.276   -27575.862    87966.404    1.0916673 
  202000     8661    283.20478    298.78418   -32576.898    4873.4492            0   -32576.898            0            0    69494.184    6695.5284   -27703.449    87508.768    1.0973763 
  203000     8661    281.18065    99.084835   -32527.251    4838.6175            0   -32527.251            0            0    69657.426    6580.6203   -27688.633    87248.817    1.1006458 
  204000     8661    283.14269    351.35232   -32445.739    4872.3806            0   -32445.739            0            0    69655.493    6667.1175   -27573.359    87971.657    1.0916021 
  205000     8661    284.79588     169.3137   -32633.339    4900.8291            0   -32633.339            0            0    69470.982     6666.177    -27732.51    87859.832    1.0929915 
  206000     8661    282.71547   -172.84554   -32714.324     4865.029            0   -32714.324            0            0    69486.858    6563.8245   -27849.295    87678.129    1.0952566 
  207000     8661    276.93201    13.072892   -32673.887     4765.506            0   -32673.887            0            0     69451.47    6637.6941   -27908.381    87724.477    1.0946779 
  208000     8661    281.70414   -30.881436   -32500.529    4847.6258            0   -32500.529            0            0    69698.813    6564.0193   -27652.903    88198.247    1.0887977 
  209000     8661    279.19669    115.21031   -32654.435     4804.477            0   -32654.435            0            0    69461.216    6653.2679   -27849.958    87691.054    1.0950952 
  210000     8661    284.55488   -239.32464   -32425.414     4896.682            0   -32425.414            0            0    69910.337    6431.1273   -27528.732    88014.007    1.0910769 
  211000     8661    277.95084    91.805309   -32630.529    4783.0383            0   -32630.529            0            0     69498.56    6633.3727   -27847.491    87348.329    1.0993919 
  212000     8661    285.78049    18.173902   -32550.291    4917.7725            0   -32550.291            0            0    69663.216    6550.8362   -27632.518    87328.264    1.0996445 
  213000     8661    287.11678    553.56714   -32728.815    4940.7676            0   -32728.815            0            0    69246.126    6792.5174   -27788.047    86727.036    1.1072677 
  214000     8661    283.30043   -190.45422   -32732.374    4875.0951            0   -32732.374            0            0    69470.798    6564.6372   -27857.279    87632.887     1.095822 
  215000     8661    282.78784   -132.88134   -32554.507    4866.2744            0   -32554.507            0            0    69682.961    6530.5118   -27688.233    87871.151    1.0928507 
  216000     8661    281.98966    153.11323   -32630.156    4852.5392            0   -32630.156            0            0    69474.877    6660.5294   -27777.616    87723.789    1.0946865 
  217000     8661    278.43697   -117.89771   -32513.002    4791.4036            0   -32513.002            0            0    69758.677    6495.8591   -27721.598    87299.053    1.1000125 
  218000     8661    282.76229   -43.503755   -32558.059    4865.8347            0   -32558.059            0            0     69648.17    6560.1335   -27692.224    87708.406    1.0948785 
  219000     8661    283.43742    108.11845   -32666.027    4877.4525            0   -32666.027            0            0    69466.153     6635.048   -27788.575    87426.039    1.0984147 
  220000     8661    277.34323    60.848393   -32575.866    4772.5823            0   -32575.866            0            0    69605.691     6584.623   -27803.283    87505.075    1.0974226 
  221000     8661    278.16671    457.10141   -32811.131    4786.7529            0   -32811.131            0            0    69129.498    6824.6782   -28024.378    87005.938    1.1037183 
  222000     8661    279.46231    221.85303   -32733.836     4809.048            0   -32733.836            0            0    69302.075    6732.3041   -27924.788    87731.631    1.0945887 
  223000     8661    280.01971     20.58097   -32693.951    4818.6398            0   -32693.951            0            0    69433.303     6636.832   -27875.311    87564.331      1.09668 
  224000     8661    283.05877    243.89238   -32578.939    4870.9365            0   -32578.939            0            0    69552.664    6633.8757   -27708.003    87024.355    1.1034847 
  225000     8661    285.23992   -144.32428   -32661.447    4908.4703            0   -32661.447            0            0     69589.94    6515.5844   -27752.977    87436.716    1.0982806 
  226000     8661    286.73999    5.8523086   -32551.569    4934.2838            0   -32551.569            0            0    69654.657    6563.2147   -27617.285    87876.554    1.0927835 
  227000     8661    280.43949   -328.96575   -32641.225    4825.8635            0   -32641.225            0            0    69650.473    6473.1085   -27815.361    87684.392    1.0951784 
  228000     8661    281.57565    494.05034   -32480.615    4845.4148            0   -32480.615            0            0    69589.849    6697.1607     -27635.2    87098.414    1.1025465 
  229000     8661     286.3941   -204.07581   -32738.505    4928.3317            0   -32738.505            0            0    69492.306    6536.7618   -27810.173      87574.4    1.0965539 
  230000     8661    281.42475    97.614135   -32667.715     4842.818            0   -32667.715            0            0    69450.176     6647.184   -27824.897    87384.603    1.0989356 
  231000     8661    287.57675    746.61939   -32772.717     4948.683            0   -32772.717            0            0    69103.002    6888.7764   -27824.034    87080.116    1.1027781 
  232000     8661    282.04607    167.91102   -32778.133    4853.5098            0   -32778.133            0            0    69292.397    6697.2257   -27924.623    87199.002    1.1012746 
  233000     8661     279.0681   -52.342777   -32646.193    4802.2642            0   -32646.193            0            0    69514.179     6606.538   -27843.929    87601.749    1.0962115 
  234000     8661    280.91028   -25.939954   -32699.692    4833.9648            0   -32699.692            0            0    69415.388    6653.6971   -27865.727    87537.103    1.0970211 
  235000     8661    285.64334    510.89762   -32599.019    4915.4124            0   -32599.019            0            0    69426.943    6740.8413   -27683.607    86916.638    1.1048523 
  236000     8661    278.08064    291.01231   -32642.147    4785.2718            0   -32642.147            0            0    69438.699    6690.6143   -27856.875    87286.349    1.1001726 
  237000     8661    287.54586   -69.308983   -32649.824    4948.1514            0   -32649.824            0            0    69536.083    6581.6186   -27701.672    87866.498    1.0929086 
  238000     8661    288.24111   -137.53575   -32767.207    4960.1154            0   -32767.207            0            0    69416.966    6580.7028   -27807.092    87789.783    1.0938636 
  239000     8661     290.0548   -240.87994   -32696.547    4991.3258            0   -32696.547            0            0    69597.745    6470.5506   -27705.221    87444.553    1.0981822 
  240000     8661    287.10503    47.524723   -32680.942    4940.5655            0   -32680.942            0            0    69503.276    6583.6871   -27740.376    87356.269     1.099292 
  241000     8661    283.96967     -380.246   -32634.105    4886.6116            0   -32634.105            0            0    69676.697    6456.4658   -27747.493    87889.191    1.0926264 
  242000     8661    285.31009   -138.37083   -32564.728    4909.6778            0   -32564.728            0            0    69694.387    6514.3952    -27655.05    87697.003    1.0950209 
  243000     8661    281.52784   -89.725517   -32690.277     4844.592            0   -32690.277            0            0    69499.412    6577.8698   -27845.685    87194.811    1.1013276 
