LAMMPS data file via write_data, version 15 Apr 2020, timestep = 1000000

8661 atoms
71 atom types
5774 bonds
254 bond types
2887 angles
155 angle types
0 dihedrals
47 dihedral types
0 impropers
5 improper types

7.6505073292415346e+00 5.2349492670741668e+01 xlo xhi
7.6505073292415346e+00 5.2349492670741668e+01 ylo yhi
7.6505073292415346e+00 5.2349492670741668e+01 zlo zhi

Masses

1 15.9994
2 15.9994
3 15.9994
4 15.9994
5 15.9994
6 14.0067
7 14.0067
8 14.0067
9 14.0067
10 14.0067
11 14.0067
12 12.011
13 12.011
14 13.019
15 14.027
16 15.035
17 16.043
18 14.027
19 12.011
20 1.008
21 1.008
22 1
23 32.06
24 63.546
25 63.546
26 55.847
27 65.37
28 24.305
29 40.08
30 39.948
31 18.9984
32 35.453
33 79.904
34 12.011
35 15.9994
36 22.9898
37 35.453
38 12.011
39 35.453
40 1.008
41 32.06
42 12.011
43 15.9994
44 12.011
45 35.453
46 18.9984
47 12.011
48 13.019
49 15.9994
50 12.011
51 15.9994
52 14.0067
53 15.035
54 126.904
55 35.453
56 10.811
57 78.96
58 1.008
59 35.453
60 79.904
61 15.9994
62 14.0067
63 12.011
64 12.011
65 14.0067
66 14.0067
67 15.9994
68 28.08
69 30.9738
70 15.9994
71 2.016

Pair Coeffs # lj/cut/coul/long

1 0.305714 2.76007
2 0.412295 2.62585
3 0.203061 2.95484
4 0.252656 2.84916
5 0.155394 3.16565
6 0.152915 3.13647
7 0.0700622 3.5722
8 0.152915 3.13647
9 0.104651 3.34113
10 0.152915 3.13647
11 0.152915 3.13647
12 0.0663015 3.58118
13 0.00167194 6.63949
14 0.0226791 5.01918
15 0.098122 4.07038
16 0.207254 3.74792
17 0.302012 3.70995
18 0.11455 3.95474
19 0.120138 3.74119
20 0.0282937 2.37341
21 0 0
22 0 0
23 0.455513 3.30769
24 2.039 1.5184
25 2.039 1.5184
26 0 0
27 1.107 1.68112
28 0.0747249 1.93323
29 0.121156 2.81311
30 0.238148 3.40984
31 0.10897 2.94006
32 0.300087 3.46982
33 0.69792 3.6508
34 0.243126 3.60124
35 0.131455 3.17694
36 0.00509651 3.12117
37 0.162149 4.09571
38 0.101741 3.40006
39 0.299511 3.44
40 0.0197496 2.20219
41 0.310038 3.55995
42 0.207254 3.74792
43 0.409923 2.63004
44 0.0544087 3.7739
45 0.270582 3.44757
46 0.0828967 3.07717
47 0.0970049 3.3611
48 0.117014 3.91992
49 0.203061 2.95484
50 0.105027 3.74991
51 0.210013 2.95998
52 0.169966 3.25006
53 0.207254 3.74792
54 0.836845 3.84961
55 0.329921 3.26983
56 0.0663015 3.58118
57 0.455513 3.30769
58 0 0
59 0.329921 3.26983
60 0.580843 3.89995
61 0.119432 3.40025
62 0.1399 3.9019
63 0.0734574 3.52053
64 0.245018 2.81144
65 0.142655 4.06776
66 0.219779 3.64529
67 0.119497 3.1
68 0.584786 3.38557
69 0.584786 3.38557
70 0.1553 3.166
71 0 0

Bond Coeffs # harmonic

1 375.239 1
2 446.941 1
3 349.274 1.09
4 1109.29 1.12
5 600.242 1.23
6 500.418 1.25
7 499.732 1.32
8 375.003 1.33
9 448.144 1.33
10 498.877 1.33
11 450.617 1.34
12 502.116 1.34
13 450.906 1.36
14 500.679 1.38
15 399.904 1.39
16 498.726 1.39
17 400.057 1.4
18 399.792 1.43
19 450.132 1.43
20 300.222 1.435
21 449.843 1.47
22 299.976 1.48
23 399.968 1.48
24 450.226 1.48
25 450.108 1.5
26 299.844 1.52
27 400.034 1.53
28 299.851 1.61
29 299.727 1.63
30 205.976 1.78
31 449.816 1.78
32 449.828 1.83
33 300.045 1.87
34 59.9679 1.98
35 60.0382 2
36 500.307 2.04
37 63.0357 2.21
38 554.493 1
39 349.928 1.1
40 599.794 1.758
41 449.829 1.53
42 444.341 1.93799
43 599.679 1.76
44 501.026 1.265
45 448.656 1.35
46 555.129 1.63299
47 350.249 2.33839
48 600.161 2.90283
49 445.884 2.79388
50 443.815 2.91189
51 409.328 2.077
52 600.173 2.87407
53 88.4321 1.1
54 56.1663 1.84
55 513.862 1.01
56 310.707 1.41
57 442.161 1.02
58 239.006 1.46
59 513.862 1.29
60 442.161 0.972
61 812.62 1.22
62 466.061 1.22
63 239.006 1.54
64 179.254 1.56
65 227.055 1.54
66 106.358 1.76
67 131.453 1.69
68 203.155 1.75
69 203.155 1.51
70 143.403 1.57
71 179.254 0.971
72 191.205 1.5
73 262.906 1.45
74 549.713 1.52
75 83.652 1.03
76 191.205 1.74
77 191.205 1.72
78 227.055 1.64
79 203.155 1.67
80 191.205 1.66
81 215.105 1.65
82 513.862 1.31
83 155.354 1.01
84 35.8509 1.89
85 101.577 1.93
86 155.354 1.36
87 167.304 1.79
88 114.723 1.35
89 155.354 1.39
90 203.155 1.38
91 227.055 0.983
92 155.354 1.3
93 418.26 1.08
94 155.354 1.9
95 1314.53 1.16
96 143.403 1.8
97 155.354 1.42
98 478.011 0.984
99 119.503 1.08
100 119.503 1.91
101 418.26 1.03
102 525.813 1.28
103 131.453 1.22
104 143.403 1.11
105 1195.03 1.21
106 466.061 1.07
107 956.023 1.21
108 693.117 1.21
109 87.2371 1.85
110 394.359 1.11
111 109.943 2.09
112 131.453 1.82
113 99.1874 1.96
114 56.1663 1.86
115 167.304 1.21
116 167.304 1.28
117 143.403 1.71
118 131.453 1.6
119 454.111 1.21
120 41.826 1.61
121 131.453 1.94
122 155.354 1.59
123 143.403 2.1
124 119.503 2.12
125 57.3614 2.13
126 203.155 1.26
127 1195.03 1.14
128 191.205 1.23
129 788.719 1.3
130 239.006 1.31
131 59.7514 2.04
132 82.457 1.34
133 621.415 0.938
134 310.707 1.16
135 34.6558 2.07
136 60.9465 1.16
137 93.2122 2.16
138 43.021 2.23
139 23.9006 2.05
140 896.272 1.19
141 728.967 1.47
142 394.359 1.57
143 1195.03 1.18
144 54.9713 1.87
145 1063.58 1.17
146 215.105 1.13
147 59.7514 2.02
148 179.254 1.07
149 250.956 1.14
150 155.354 1.06
151 537.763 1.46
152 812.62 1.17
153 92.0172 2.15
154 239.006 1.04
155 60.9465 1.4
156 1314.53 1.11
157 466.061 1.56
158 752.868 1.49
159 501.912 1.54
160 35.8509 2.17
161 35.8509 2.27
162 669.216 1.45
163 764.818 1.25
164 848.47 1.27
165 561.663 1.16
166 1434.03 1.14
167 501.912 1.17
168 537.763 1.19
169 920.172 1.14
170 227.055 1.24
171 1434.03 1.13
172 89.6272 2.91
173 57.3614 2.24
174 418.26 0.743
175 239.006 1.2
176 111.138 2.33
177 96.7973 2.42
178 83.652 1.32
179 1159.18 1.2
180 1314.53 1.2
181 430.21 1.58
182 53.7763 1.47
183 1.55354 2.77
184 5.13862 2.25
185 100.382 2.18
186 50.1912 1.52
187 93.2122 2.19
188 27.4857 1.48
189 1912.05 1.07
190 8.60421 2.8
191 87.2371 2.52
192 0.669216 2.79
193 812.62 1.16
194 1.79254 2.68
195 406.31 1.59
196 119.503 1.18
197 34.6558 2.54
198 1792.54 1.1
199 824.57 1.29
200 33.4608 2.44
201 107.553 2.41
202 112.333 2.36
203 20.3155 1.43
204 2.27055 2.57
205 19.1205 2.47
206 0.764818 2.71
207 1553.54 1.12
208 3.70459 2.75
209 501.912 1.14
210 0.717017 2.86
211 10.5163 2.64
212 1912.05 0.985
213 1.91205 2.61
214 7.40918 2.62
215 59.7514 2.46
216 3.58509 2.66
217 1.31453 2.72
218 58.5564 1.63
219 573.614 1.12
220 37.0459 2.32
221 16.7304 1.44
222 1553.54 1.16
223 7.17017 2.69
224 10.0382 2.49
225 3.22658 2.92
226 0.82457 2.29
227 9.79924 2.4
228 1.03967 2.37
229 1.55354 2.94
230 5.85564 2.95
231 1.67304 2.96
232 0.0131453 2.56
233 5.25813 2.59
234 15.5354 2.38
235 836.52 1.12
236 1.91205 2.5
237 2.39006 2.3
238 585.564 1.04
239 3.34608 2.99
240 0.967973 2.34
241 1.07553 2.98
242 2.27055 2.74
243 1063.58 1.16
244 812.62 1.5
245 1.31453 2.84
246 0.322658 2.82
247 908.222 1.23
248 466.061 1.05
249 3.34608 2.88
250 1434.03 1.18
251 1673.04 1.15
252 6.33365 2.9
253 0 0
254 100 1

Angle Coeffs # harmonic

1 45.3116 90
2 50.0917 90
3 47.7712 96
4 54.9551 100
5 47.5559 103
6 55.0345 104
7 50.1709 108
8 30.1731 109.5
9 33.8897 109.5
10 40.2609 109.5
11 45.0394 109.5
12 47.694 109.5
13 55.1272 109.5
14 47.635 109.6
15 55.1139 111
16 55.0997 113
17 4.824 115
18 45.0699 115
19 59.7937 115
20 44.8085 116
21 59.7719 116
22 60.1639 117
23 34.88 120
24 39.8095 120
25 45.1871 120
26 47.4278 120
27 50.1166 120
28 59.9756 120
29 69.8346 120
30 60.0726 121
31 60.091 122
32 34.8146 123
33 59.8929 124
34 30.0075 125
35 60.0779 125
36 44.9139 126
37 49.998 126
38 60.166 126
39 50.1189 132
40 47.5187 155
41 28.4971 180
42 45.9951 109.5
43 52.4767 107.57
44 65.472 111.3
45 55.0189 97.4
46 55.0247 106.75
47 47.5019 108.53
48 65.5335 109.5
49 54.9566 107.6
50 47.4817 109.5
51 54.9931 110.3
52 55.0234 111.4
53 60.044 117.2
54 60.0023 121.4
55 48.24 180
56 180.46 109
57 192.229 106
58 145.153 126
59 145.153 96.2
60 156.922 114
61 203.998 119
62 239.306 130
63 298.152 107
64 156.922 134
65 239.306 101
66 286.382 113
67 368.766 134
68 356.997 119
69 333.459 126
70 251.075 89.6
71 380.536 114
72 286.382 135
73 145.153 88.3
74 133.384 60
75 380.536 179
76 251.075 180
77 470.766 178
78 47.0766 59.9
79 47.0766 60.3
80 251.075 124
81 706.149 118
82 117.691 144
83 627.688 123
84 470.766 118
85 333.459 94.8
86 90.2301 175
87 156.922 82.8
88 117.691 77.6
89 239.306 145
90 251.075 50.8
91 380.536 104
92 262.844 84.4
93 215.768 63.3
94 215.768 61
95 298.152 173
96 192.229 173
97 82.384 50.9
98 431.535 127
99 62.7688 67.8
100 156.922 180
101 588.457 118
102 30.1731 110
103 227.537 94.8
104 431.535 173
105 34.5228 78.5
106 70.6149 138
107 70.6149 168
108 156.922 167
109 18.046 149
110 333.459 144
111 356.997 148
112 321.69 144
113 356.997 148
114 321.69 147
115 333.459 144
116 5099.96 60.8
117 1451.53 68
118 298.152 161
119 156.922 155
120 309.921 154
121 215.768 75.3
122 309.921 64.7
123 549.227 173
124 3334.59 45.8
125 863.071 123
126 549.227 123
127 470.766 166
128 380.536 166
129 203.998 139
130 66.6918 161
131 7.45379 44.9
132 25.1075 84.8
133 192.229 161
134 333.459 70.4
135 627.688 173
136 1.92229 51.6
137 21.5768 73.3
138 7.45379 174
139 470.766 132
140 145.153 69.9
141 15.6922 144
142 1922.29 97.9
143 392.305 155
144 588.457 104
145 117.691 149
146 509.996 157
147 286.382 166
148 333.459 89.8
149 392.305 79.1
150 6669.18 45.2
151 470.766 101
152 745.379 125
153 168.691 49.6
154 509.996 112
155 100 109.47

Dihedral Coeffs # harmonic

1 0.638145 -1 1
2 0.81501 -1 1
3 1.18786 -1 1
4 1.40057 -1 1
5 2.2347 -1 1
6 2.2586 -1 1
7 0.666826 1 1
8 1.27868 1 1
9 0.365679 -1 2
10 1.40057 -1 2
11 1.69933 -1 2
12 3.9914 -1 2
13 5.73614 -1 2
14 8.00669 -1 2
15 9.99044 -1 2
16 0 1 2
17 0.0999044 1 2
18 0.499522 1 2
19 0.750478 1 2
20 1.21654 1 2
21 3.9914 1 2
22 0.250956 1 3
23 0.301147 1 3
24 0.310707 1 3
25 0.604685 1 3
26 0.700287 1 3
27 0.762428 1 3
28 0.872371 1 3
29 0.901052 1 3
30 0.932122 1 3
31 0.999044 1 3
32 1.12094 1 3
33 1.30019 1 3
34 1.41491 1 3
35 1.83795 1 3
36 2.06023 1 3
37 2.27055 1 3
38 0 1 4
39 0.239006 -1 6
40 0.239006 1 6
41 0.901052 1 6
42 0.83652 -1 2
43 0.669216 1 3
44 0.167304 -1 6
45 0.0956023 1 6
46 0.239006 -1 3
47 0 1 1

Improper Coeffs # harmonic

1 20.0075 0
2 40.0151 35.2644
3 80.0302 0
4 20.0075 180
5 40.0151 -35.2644

Atoms # full

3669 765 71 4.2380000000000001e-01 1.1317439593458966e+01 9.2862292815454595e+00 1.3758905093624625e+01 1 -4 -5
3670 765 70 -8.4760000000000002e-01 1.1914192738068103e+01 9.0191448772277809e+00 1.3002247981151815e+01 1 -4 -5
9739 2788 70 -8.4760000000000002e-01 1.6678330468802418e+01 9.9813389743121377e+00 1.6144307387259335e+01 7 0 -5
9738 2788 71 4.2380000000000001e-01 1.6545021256378568e+01 1.0818325562998748e+01 1.6675024309556576e+01 7 0 -5
3668 765 71 4.2380000000000001e-01 1.2289062814793610e+01 8.1090177975458513e+00 1.3178655137578598e+01 1 -4 -5
4859 1162 71 4.2380000000000001e-01 1.3429727008912671e+01 1.4638149661796003e+01 1.7706375201925631e+01 5 -4 -6
4861 1162 70 -8.4760000000000002e-01 1.3412223921999772e+01 1.3691263365118267e+01 1.7385317213992622e+01 5 -4 -6
9737 2788 71 4.2380000000000001e-01 1.5896437198544881e+01 9.3728007819250365e+00 1.6279593938286599e+01 7 0 -5
2095 240 70 -8.4760000000000002e-01 1.3616345026927975e+01 1.1233999785652440e+01 1.2334866254524533e+01 2 -3 -2
4860 1162 71 4.2380000000000001e-01 1.2530499843107664e+01 1.3502087601272049e+01 1.6953167508705597e+01 5 -4 -6
8168 2265 71 4.2380000000000001e-01 9.1634162319164822e+00 1.4107024187624003e+01 1.1383293180366344e+01 5 -5 -6
2093 240 71 4.2380000000000001e-01 1.3160914743649458e+01 1.0429362218288507e+01 1.2715812465894921e+01 2 -3 -2
2094 240 71 4.2380000000000001e-01 1.3067849110631130e+01 1.2048388670411798e+01 1.2524343160954359e+01 2 -3 -2
4133 920 71 4.2380000000000001e-01 1.0064115686753844e+01 1.1993767160679308e+01 1.0987522738171684e+01 5 -3 -4
10197 2941 71 4.2380000000000001e-01 1.2353815626124817e+01 1.3625077493900719e+01 1.4246004073315296e+01 6 0 -2
1962 196 71 4.2380000000000001e-01 1.4929470128591165e+01 9.1702387727756403e+00 1.9505537788635717e+01 5 -5 -4
9362 2663 71 4.2380000000000001e-01 9.5909912642396336e+00 1.5618853897943968e+01 1.6321803188594451e+01 8 -3 -1
9364 2663 70 -8.4760000000000002e-01 9.0504159727400264e+00 1.5238293124351781e+01 1.5571516262435264e+01 8 -3 -1
6788 1805 71 4.2380000000000001e-01 4.4726029587253620e+01 2.9352078794373430e+01 2.8280537290298465e+01 5 -5 -2
8975 2534 71 4.2380000000000001e-01 1.4170590408269298e+01 1.2457000912769095e+01 7.9775168268813879e+00 4 -4 -5
5356 1327 70 -8.4760000000000002e-01 1.4138404707881001e+01 1.2449746106599855e+01 9.8007897794859637e+00 3 -3 -3
5355 1327 71 4.2380000000000001e-01 1.4771763346440643e+01 1.3143632750194751e+01 1.0143363102795634e+01 3 -3 -3
2858 495 71 4.2380000000000001e-01 1.5232188628276193e+01 9.5209577404143761e+00 1.0957147479987402e+01 7 -1 -3
2860 495 70 -8.4760000000000002e-01 1.5013896189345937e+01 8.7711732054979912e+00 1.0332527791316918e+01 7 -1 -3
2859 495 71 4.2380000000000001e-01 1.5782773699269315e+01 8.1328107207584939e+00 1.0296487032742526e+01 7 -1 -3
5354 1327 71 4.2380000000000001e-01 1.3790014745173943e+01 1.1909299606737431e+01 1.0566635907018430e+01 3 -3 -3
4134 920 71 4.2380000000000001e-01 1.0483453012323338e+01 1.2373608005862675e+01 1.2519333962558910e+01 5 -3 -4
4135 920 70 -8.4760000000000002e-01 9.8153269188685464e+00 1.2532442896871590e+01 1.1792452049115933e+01 5 -3 -4
2411 346 71 4.2380000000000001e-01 9.6257936333707637e+00 1.4844147364112487e+01 1.8584830560054336e+01 6 -4 -1
5234 1287 71 4.2380000000000001e-01 1.0772333042934166e+01 1.2359951824734210e+01 1.6223972113207054e+01 7 -2 -3
4305 977 71 4.2380000000000001e-01 1.5462472427241282e+01 1.2972373644918154e+01 1.3099679398149451e+01 5 -2 -5
2412 346 71 4.2380000000000001e-01 1.0762644606381173e+01 1.5935146168850565e+01 1.8156041539397592e+01 6 -4 -1
4748 1125 71 4.2380000000000001e-01 1.1798162019477108e+01 1.6226958338261880e+01 9.5041159830848212e+00 6 -7 -5
2413 346 70 -8.4760000000000002e-01 9.8058447133159135e+00 1.5666458345857055e+01 1.8045048516347560e+01 6 -4 -1
4749 1125 71 4.2380000000000001e-01 1.3313928101254538e+01 1.6825854982323854e+01 9.4024087487971659e+00 6 -7 -5
10198 2941 70 -8.4760000000000002e-01 1.2308812576150714e+01 1.3277151314360527e+01 1.3309574497230969e+01 6 0 -2
5236 1287 70 -8.4760000000000002e-01 1.1170313506246920e+01 1.3275761563031852e+01 1.6170283594668255e+01 7 -2 -3
5777 1468 71 4.2380000000000001e-01 1.6626761693476034e+01 1.2149674916952179e+01 1.8821505710720828e+01 4 -6 -3
6852 1826 71 4.2380000000000001e-01 1.3071802017317436e+01 1.6813719120213761e+01 1.8003111010770510e+01 7 -5 -3
6853 1826 70 -8.4760000000000002e-01 1.2321251632090515e+01 1.6313659849444171e+01 1.8435075326658193e+01 7 -5 -3
6941 1856 71 4.2380000000000001e-01 3.4365319804262569e+01 2.9801859381455511e+01 2.5973423430380439e+01 4 -3 -3
10196 2941 71 4.2380000000000001e-01 1.2138790046275851e+01 1.4035338276350076e+01 1.2680111863492691e+01 6 0 -2
1963 196 70 -8.4760000000000002e-01 1.5675839944044506e+01 9.6852631445254929e+00 1.9927035563742947e+01 5 -5 -4
1961 196 71 4.2380000000000001e-01 1.6064501904155648e+01 1.0317609209128214e+01 1.9256917093995803e+01 5 -5 -4
4306 977 70 -8.4760000000000002e-01 1.5532169199387198e+01 1.3218234318212163e+01 1.4066464328311088e+01 5 -2 -5
4304 977 71 4.2380000000000001e-01 1.4727713806732600e+01 1.2880503755283430e+01 1.4555103054269159e+01 5 -2 -5
5235 1287 71 4.2380000000000001e-01 1.0466742817502576e+01 1.3929067216292658e+01 1.5890715605161418e+01 7 -2 -3
8154 2260 71 4.2380000000000001e-01 1.6946982256380736e+01 1.4500586561766145e+01 1.0861263517599776e+01 7 -5 -5
5779 1468 70 -8.4760000000000002e-01 1.6029077092534802e+01 1.1674566271110645e+01 1.8175732446367974e+01 4 -6 -3
8170 2265 70 -8.4760000000000002e-01 8.7548141514298390e+00 1.4958766012065446e+01 1.1055331902092224e+01 5 -5 -6
3071 566 71 4.2380000000000001e-01 1.6296640367191333e+01 1.6392593174309493e+01 1.5351549644466548e+01 4 -4 -3
3073 566 70 -8.4760000000000002e-01 1.6941567631854134e+01 1.5628364149305924e+01 1.5352744057223955e+01 4 -4 -3
6151 1592 70 -8.4760000000000002e-01 1.1564804555251198e+01 1.5757266942294100e+01 1.2244543149845823e+01 3 -4 -4
7137 1921 71 4.2380000000000001e-01 1.5358744137120087e+01 1.7836481362350192e+01 1.6940799802279098e+01 6 -3 -3
7136 1921 71 4.2380000000000001e-01 1.4832086404120597e+01 1.8156983610551613e+01 1.8452910343583106e+01 6 -3 -3
7138 1921 70 -8.4760000000000002e-01 1.4549306516933974e+01 1.7979552070222780e+01 1.7510290641652286e+01 6 -3 -3
8155 2260 70 -8.4760000000000002e-01 1.6312631782136165e+01 1.3881951024670119e+01 1.0397725168369796e+01 7 -5 -5
9947 2858 71 4.2380000000000001e-01 1.9005872592375162e+01 1.2083764079815907e+01 1.7860041903346804e+01 6 -4 -3
8169 2265 71 4.2380000000000001e-01 8.3587107431491052e+00 1.5457032133801578e+01 1.1826572055331763e+01 5 -5 -6
8164 2263 70 -8.4760000000000002e-01 1.0474358899695547e+01 1.0625879142949611e+01 1.6475326393052129e+01 5 0 -4
8162 2263 71 4.2380000000000001e-01 1.1423611857179031e+01 1.0373429016181667e+01 1.6287800571121764e+01 5 0 -4
6149 1592 71 4.2380000000000001e-01 1.1952831419726888e+01 1.5912948679522520e+01 1.1336150570638500e+01 3 -4 -4
6150 1592 71 4.2380000000000001e-01 1.0609490616303551e+01 1.5475565267558100e+01 1.2155113158819020e+01 3 -4 -4
1983 203 71 4.2380000000000001e-01 1.4071909306808717e+01 1.6194799054032956e+01 1.2344885325514905e+01 7 -2 -4
6113 1580 71 4.2380000000000001e-01 1.2255060387677114e+01 1.6395659790216101e+01 1.4102793615630571e+01 6 -2 -2
5778 1468 71 4.2380000000000001e-01 1.5279764621244244e+01 1.2280067072044602e+01 1.7907632037599640e+01 4 -6 -3
5007 1211 71 4.2380000000000001e-01 8.5289871810028508e+00 9.0108070447897646e+00 1.5375611405592810e+01 4 -3 -3
10389 3005 71 4.2380000000000001e-01 3.6005534491580292e+01 1.8526420044828228e+01 2.9765409641426785e+01 8 -3 -3
3072 566 71 4.2380000000000001e-01 1.6508559151030944e+01 1.4826175834492766e+01 1.4941677068217157e+01 4 -4 -3
1984 203 70 -8.4760000000000002e-01 1.5034873001185089e+01 1.6450303001392122e+01 1.2430890377948911e+01 7 -2 -4
1982 203 71 4.2380000000000001e-01 1.5175687175185097e+01 1.6933168453764281e+01 1.3295176580353019e+01 7 -2 -4
2869 498 70 -8.4760000000000002e-01 1.0443781170235408e+01 1.1021652269833586e+01 9.6087066854534271e+00 3 -4 -3
5008 1211 70 -8.4760000000000002e-01 9.2099664228634399e+00 9.0894764943230086e+00 1.4647561160221237e+01 4 -3 -3
8802 2476 71 4.2380000000000001e-01 1.7552659920620897e+01 1.0985434273657155e+01 1.2174924170770828e+01 6 -4 -1
6115 1580 70 -8.4760000000000002e-01 1.2491357962135057e+01 1.7155363249039421e+01 1.4708592571959471e+01 6 -2 -2
4805 1144 71 4.2380000000000001e-01 1.5639902621545909e+01 1.8853886825746066e+01 8.7766867602550640e+00 5 -3 -2
9434 2687 71 4.2380000000000001e-01 1.2104896602993469e+01 2.9699739296783768e+01 1.8052032550071800e+01 4 -5 -6
8468 2365 71 4.2380000000000001e-01 3.8861766254577809e+01 2.2065871762519798e+01 7.7713711515269672e+00 3 -5 -3
8261 2296 71 4.2380000000000001e-01 4.5636177264371199e+01 1.6462427073465381e+01 2.8488541300406855e+01 5 -3 -4
2867 498 71 4.2380000000000001e-01 1.0653822565601320e+01 1.1243037732490297e+01 8.6564202702387565e+00 3 -4 -3
2868 498 71 4.2380000000000001e-01 1.0635571934374536e+01 1.0054625869695627e+01 9.7762026593544640e+00 3 -4 -3
10303 2976 70 -8.4760000000000002e-01 1.2716305500540507e+01 9.4910085535162416e+00 1.5803080291877476e+01 4 -1 1
10302 2976 71 4.2380000000000001e-01 1.2907686862442805e+01 8.7830921955362911e+00 1.5123223054598217e+01 4 -1 1
7151 1926 71 4.2380000000000001e-01 1.8298024890857054e+01 9.9607533896262765e+00 8.1820930356117714e+00 7 -4 -4
7153 1926 70 -8.4760000000000002e-01 1.8284720967209978e+01 1.0684053227275760e+01 8.8724833656942650e+00 7 -4 -4
8853 2493 71 4.2380000000000001e-01 3.5395896486196790e+01 2.8269669187804247e+01 1.9330139411645103e+01 7 -3 -2
8441 2356 71 4.2380000000000001e-01 4.9908407483799827e+01 1.5121972347780194e+01 8.4650795544543520e+00 5 -3 -2
5614 1413 70 -8.4760000000000002e-01 4.4623276543204597e+01 2.8940281644381777e+01 1.7540280054576563e+01 7 -4 -5
7990 2205 70 -8.4760000000000002e-01 5.1853553484117057e+01 1.5399188625030046e+01 8.6798129408459790e+00 5 -4 -2
7989 2205 71 4.2380000000000001e-01 7.6643188755043621e+00 1.5239941222834887e+01 9.5252553980897030e+00 6 -4 -2
8348 2325 71 4.2380000000000001e-01 3.8267644111477964e+01 8.1018310540784313e+00 1.4969011996863236e+01 6 -6 -3
7988 2205 71 4.2380000000000001e-01 5.1805181588324501e+01 1.6381651108719353e+01 8.4997964444262024e+00 5 -4 -2
2201 276 71 4.2380000000000001e-01 1.0249965163666975e+01 2.9453992693168193e+01 1.4924714308436933e+01 3 -4 -6
6642 1756 71 4.2380000000000001e-01 1.3136807802892520e+01 1.9076442173345782e+01 1.7107795889323796e+01 6 -4 -4
4029 885 71 4.2380000000000001e-01 1.4260349002530292e+01 1.7905043767231195e+01 1.5005831079965983e+01 5 -5 -4
6114 1580 71 4.2380000000000001e-01 1.1894414701215076e+01 1.7933976654185834e+01 1.4515206327466778e+01 6 -2 -2
2560 395 70 -8.4760000000000002e-01 7.9351082375024120e+00 1.7751249030213234e+01 1.8232839620772310e+01 4 -2 -1
2558 395 71 4.2380000000000001e-01 8.4086003749437452e+00 1.6872046452348940e+01 1.8285626512476547e+01 4 -2 -1
3855 827 71 4.2380000000000001e-01 3.9588745191071695e+01 8.4049593754406686e+00 2.1299946451345658e+01 4 -3 -4
2559 395 71 4.2380000000000001e-01 7.6665396295440384e+00 1.8040869282434969e+01 1.9151517731154645e+01 4 -2 -1
7545 2057 71 4.2380000000000001e-01 1.4630380576378297e+01 9.1669920965004543e+00 8.7260364120561249e+00 6 -3 -5
4324 983 70 -8.4760000000000002e-01 3.7257259321789448e+01 2.9949056862644312e+01 8.1458756444061127e+00 7 -7 -6
6926 1851 71 4.2380000000000001e-01 2.5054471401652560e+01 9.4765314422395193e+00 2.1271960483739342e+01 3 -5 -5
8163 2263 71 4.2380000000000001e-01 9.8642771771888356e+00 1.0075650026499694e+01 1.5905215538359933e+01 5 0 -4
4530 1052 71 4.2380000000000001e-01 1.2230555394105346e+01 1.0081410854656422e+01 1.9816101301804380e+01 3 -3 -3
4531 1052 70 -8.4760000000000002e-01 1.2027633625529081e+01 9.1907397101839639e+00 2.0222926003748611e+01 3 -3 -3
8039 2222 71 4.2380000000000001e-01 9.0560214679716609e+00 1.1966701810896220e+01 1.9269453169250163e+01 4 -4 -3
8041 2222 70 -8.4760000000000002e-01 9.2188011675495343e+00 1.1011524165710741e+01 1.9022235063248239e+01 4 -4 -3
8040 2222 71 4.2380000000000001e-01 9.6238587864523755e+00 1.0967971106179718e+01 1.8108993674203987e+01 4 -4 -3
4438 1021 70 -8.4760000000000002e-01 1.3773862375480366e+01 2.9803136331318978e+01 1.9647865890721043e+01 7 -4 -2
4517 1048 71 4.2380000000000001e-01 3.6611995710557110e+01 2.4956164320695915e+01 7.6769938699737583e+00 3 -4 -2
9350 2659 71 4.2380000000000001e-01 1.6330201140334928e+01 1.8958261786046648e+01 2.0296781424262615e+01 7 -4 1
3832 819 70 -8.4760000000000002e-01 1.4928419416504969e+01 2.9421075445576733e+01 2.6763916491708848e+01 3 -5 -3
7019 1882 71 4.2380000000000001e-01 3.3499209798650185e+01 1.6127014831114487e+01 8.6692916880989142e+00 8 -4 -4
7486 2037 70 -8.4760000000000002e-01 5.2333687279292967e+01 1.8574404787649573e+01 8.3830103931175017e+00 5 -3 -2
5310 1312 71 4.2380000000000001e-01 5.0447224400868159e+01 2.9774241209349380e+01 1.7431992349276634e+01 4 -2 -3
7083 1903 71 4.2380000000000001e-01 3.1265208811302802e+01 2.8317441877580876e+01 2.3425066542955946e+01 5 -6 -2
8153 2260 71 4.2380000000000001e-01 1.6448191072448651e+01 1.2950722282647028e+01 1.0735978222344107e+01 7 -5 -5
3896 841 71 4.2380000000000001e-01 1.8356649932721218e+01 1.7149773885485068e+01 1.9734214363943977e+01 9 -4 -3
2748 458 71 4.2380000000000001e-01 2.0233317832377956e+01 9.7584929411265264e+00 1.3002940221663478e+01 6 -4 -2
8803 2476 70 -8.4760000000000002e-01 1.7391119512224193e+01 1.1476387657489386e+01 1.1318858910335369e+01 6 -4 -1
7926 2184 71 4.2380000000000001e-01 1.8533256660834933e+01 1.2760156284350288e+01 1.1423950187975322e+01 4 -3 -3
7927 2184 70 -8.4760000000000002e-01 1.8951617765936266e+01 1.3533484266762608e+01 1.1900307352275529e+01 4 -3 -3
2569 398 70 -8.4760000000000002e-01 1.9100899700080127e+01 1.6371947337596566e+01 1.7042895877892661e+01 5 -4 -5
5648 1425 71 4.2380000000000001e-01 2.7750365305310407e+01 7.8578898571525668e+00 1.9886545394066321e+01 5 0 -5
2568 398 71 4.2380000000000001e-01 1.8302974720107358e+01 1.5926685766451259e+01 1.6636649434999729e+01 5 -4 -5
2747 458 71 4.2380000000000001e-01 1.9942161395159779e+01 1.1037331571580982e+01 1.2030125738336526e+01 6 -4 -2
7925 2184 71 4.2380000000000001e-01 1.9394712663512216e+01 1.4134499302475984e+01 1.1235156194908281e+01 4 -3 -3
10032 2886 71 4.2380000000000001e-01 1.8814012173067702e+01 8.8796704954767804e+00 1.1504433050884955e+01 2 -2 -6
4514 1047 71 4.2380000000000001e-01 2.8837557101251669e+01 8.0150770253389521e+00 1.7256011807810204e+01 3 -3 -4
8801 2476 71 4.2380000000000001e-01 1.7631266404120041e+01 1.0888016856892852e+01 1.0546765931695363e+01 6 -4 -1
7032 1886 71 4.2380000000000001e-01 1.9588688235765929e+01 9.8899037651952639e+00 1.7124253154337225e+01 1 -3 -3
2203 276 70 -8.4760000000000002e-01 1.0706028983553198e+01 2.8644423349950848e+01 1.5294283865954229e+01 3 -4 -6
10031 2886 71 4.2380000000000001e-01 1.8214563552852372e+01 9.0418602370320080e+00 9.9941601427945610e+00 2 -2 -6
10033 2886 70 -8.4760000000000002e-01 1.8293172576559300e+01 8.4283098854672147e+00 1.0779879448402392e+01 2 -2 -6
4877 1168 71 4.2380000000000001e-01 2.3059542812180659e+01 1.2074317180883741e+01 1.6680008142148623e+01 3 -7 -2
4879 1168 70 -8.4760000000000002e-01 2.4027694689253053e+01 1.2044367950352498e+01 1.6928530643403036e+01 3 -7 -2
4878 1168 71 4.2380000000000001e-01 2.4232501507230563e+01 1.1168946639580733e+01 1.7366331988225511e+01 3 -7 -2
5038 1221 70 -8.4760000000000002e-01 1.9867758569671320e+01 8.3137337793851387e+00 1.7680889472453348e+01 5 -3 -2
8068 2231 70 -8.4760000000000002e-01 3.1057326686727571e+01 2.9806533896354019e+01 1.8769824083144428e+01 5 -5 -5
5037 1221 71 4.2380000000000001e-01 2.0567834678078327e+01 8.7865356959909544e+00 1.8215987783179600e+01 5 -3 -2
4682 1103 71 4.2380000000000001e-01 2.1835981913315930e+01 1.1499808228509121e+01 9.8756976480819247e+00 5 -3 -6
3210 612 71 4.2380000000000001e-01 2.5987248800208846e+01 1.6348608180599818e+01 8.7893450528783088e+00 5 -1 -3
10184 2937 71 4.2380000000000001e-01 1.9282249409970682e+01 1.5423217713856296e+01 9.1137534061240242e+00 5 -3 -5
10186 2937 70 -8.4760000000000002e-01 1.9914708547921972e+01 1.4681878499056719e+01 9.3382304065410775e+00 5 -3 -5
10185 2937 71 4.2380000000000001e-01 2.0756341921549947e+01 1.4790098573003000e+01 8.8091554513476140e+00 5 -3 -5
7938 2188 71 4.2380000000000001e-01 2.1483740418330321e+01 1.2245941345322617e+01 1.4867441774721279e+01 3 -4 -2
5712 1446 71 4.2380000000000001e-01 2.1505573197184486e+01 1.3644669421885363e+01 1.6739464678319031e+01 5 -4 -4
10166 2931 71 4.2380000000000001e-01 2.1538242138589972e+01 1.3590039596371291e+01 1.3652201274788812e+01 5 -2 0
10168 2931 70 -8.4760000000000002e-01 2.1523502551916216e+01 1.2684555674768987e+01 1.3228102139734652e+01 5 -2 0
7939 2188 70 -8.4760000000000002e-01 2.1467563246901509e+01 1.1969546663222637e+01 1.5828338633970171e+01 3 -4 -2
7937 2188 71 4.2380000000000001e-01 2.0571816051015851e+01 1.1583725110359051e+01 1.6049149123999857e+01 3 -4 -2
10167 2931 71 4.2380000000000001e-01 2.1496937015209461e+01 1.2782820672345570e+01 1.2233307383391594e+01 5 -2 0
2997 541 71 4.2380000000000001e-01 2.1919531522547519e+01 1.6187513686694235e+01 1.1216291437032730e+01 6 -5 -4
2998 541 70 -8.4760000000000002e-01 2.2918166242076275e+01 1.6231752694466785e+01 1.1243680014225529e+01 6 -5 -4
4684 1103 70 -8.4760000000000002e-01 2.1401857411446542e+01 1.2278363561807078e+01 1.0328870691428621e+01 5 -3 -6
5708 1445 71 4.2380000000000001e-01 2.3744369372851345e+01 1.7160285164434907e+01 1.2423656823284794e+01 5 -1 -4
9293 2640 71 4.2380000000000001e-01 2.3731231105733237e+01 1.5557045473796007e+01 8.2774249275820146e+00 5 -2 -3
9294 2640 71 4.2380000000000001e-01 2.3741263209529649e+01 1.6234944312706183e+01 9.7629958015944744e+00 5 -2 -3
9295 2640 70 -8.4760000000000002e-01 2.4153743958390280e+01 1.6257723645725470e+01 8.8523261383083245e+00 5 -2 -3
8608 2411 70 -8.4760000000000002e-01 1.8861644661119051e+01 1.5970333634760834e+01 1.3484291409769940e+01 5 -5 -5
8607 2411 71 4.2380000000000001e-01 1.8163867570528407e+01 1.5858420564845540e+01 1.4191794913164758e+01 5 -5 -5
7072 1899 70 -8.4760000000000002e-01 1.8706788177981934e+01 1.7334592477724136e+01 8.7156151864058273e+00 8 -4 -2
2996 541 71 4.2380000000000001e-01 2.3278318756706916e+01 1.5388714937916824e+01 1.1643124296077842e+01 6 -5 -4
4683 1103 71 4.2380000000000001e-01 2.1131517038186669e+01 1.2954603353141932e+01 9.6436013191138592e+00 5 -3 -6
5713 1446 70 -8.4760000000000002e-01 2.1507255376982663e+01 1.4644619065967801e+01 1.6730732528542170e+01 5 -4 -4
5711 1446 71 4.2380000000000001e-01 2.2450234682041565e+01 1.4976565607222291e+01 1.6754817015959151e+01 5 -4 -4
8606 2411 71 4.2380000000000001e-01 1.9020145496801376e+01 1.5093301104313660e+01 1.3030782982110326e+01 5 -5 -5
2942 523 71 4.2380000000000001e-01 2.1348270694128217e+01 1.6090109348086735e+01 1.3378044514034171e+01 5 -5 -8
7033 1886 70 -8.4760000000000002e-01 1.9278309058722527e+01 1.0680392186547241e+01 1.6596265028489448e+01 1 -3 -3
2944 523 70 -8.4760000000000002e-01 2.1802468107187053e+01 1.5326384798726416e+01 1.3836746721338329e+01 5 -5 -8
7031 1886 71 4.2380000000000001e-01 1.8401476159397944e+01 1.0469257194424769e+01 1.6164333647966899e+01 1 -3 -3
2943 523 71 4.2380000000000001e-01 2.1817196616231140e+01 1.5491061988993458e+01 1.4822973255844069e+01 5 -5 -8
6322 1649 70 -8.4760000000000002e-01 2.1483115825131154e+01 1.0039870055389436e+01 1.9228806235574297e+01 8 -6 -5
5144 1257 71 4.2380000000000001e-01 2.2733336378804069e+01 1.3745987827113307e+01 1.9151306322547008e+01 7 -2 -6
6679 1768 70 -8.4760000000000002e-01 5.0775579099176603e+01 2.8894413804362671e+01 2.4305425466898008e+01 4 -5 -6
2567 398 71 4.2380000000000001e-01 1.9879796199367650e+01 1.5745215455802873e+01 1.7020408327460196e+01 5 -4 -5