LAMMPS data file via write_data, version 3 Mar 2020, timestep = 1

1750 atoms
71 atom types
1625 bonds
254 bond types
2625 angles
155 angle types
3375 dihedrals
47 dihedral types
125 impropers
5 improper types

-1.7416334679865031e-04 2.0000017416334680e+02 xlo xhi
-1.7416334679865031e-04 2.0000017416334680e+02 ylo yhi
-1.7416334679865031e-04 2.0000017416334680e+02 zlo zhi

Masses

1 15.9994
2 15.9994
3 15.9994
4 15.9994
5 15.9994
6 14.0067
7 14.0067
8 14.0067
9 14.0067
10 14.0067
11 14.0067
12 12.011
13 12.011
14 13.019
15 14.027
16 15.035
17 16.043
18 14.027
19 12.011
20 1.008
21 1.008
22 1
23 32.06
24 63.546
25 63.546
26 55.847
27 65.37
28 24.305
29 40.08
30 39.948
31 18.9984
32 35.453
33 79.904
34 12.011
35 15.9994
36 22.9898
37 35.453
38 12.011
39 35.453
40 1.008
41 32.06
42 12.011
43 15.9994
44 12.011
45 35.453
46 18.9984
47 12.011
48 13.019
49 15.9994
50 12.011
51 15.9994
52 14.0067
53 15.035
54 126.904
55 35.453
56 10.811
57 78.96
58 1.008
59 35.453
60 79.904
61 15.9994
62 14.0067
63 12.011
64 12.011
65 14.0067
66 14.0067
67 15.9994
68 28.08
69 30.9738
70 15.9994
71 1.008

Pair Coeffs # lj/cut/coul/long

1 0.305714 2.76007
2 0.412295 2.62585
3 0.203061 2.95484
4 0.252656 2.84916
5 0.155394 3.16565
6 0.152915 3.13647
7 0.0700622 3.5722
8 0.152915 3.13647
9 0.104651 3.34113
10 0.152915 3.13647
11 0.152915 3.13647
12 0.0663015 3.58118
13 0.00167194 6.63949
14 0.0226791 5.01918
15 0.098122 4.07038
16 0.207254 3.74792
17 0.302012 3.70995
18 0.11455 3.95474
19 0.120138 3.74119
20 0.0282937 2.37341
21 0 0
22 0 0
23 0.455513 3.30769
24 2.039 1.5184
25 2.039 1.5184
26 0 0
27 1.107 1.68112
28 0.0747249 1.93323
29 0.121156 2.81311
30 0.238148 3.40984
31 0.10897 2.94006
32 0.300087 3.46982
33 0.69792 3.6508
34 0.243126 3.60124
35 0.131455 3.17694
36 0.00509651 3.12117
37 0.162149 4.09571
38 0.101741 3.40006
39 0.299511 3.44
40 0.0197496 2.20219
41 0.310038 3.55995
42 0.207254 3.74792
43 0.409923 2.63004
44 0.0544087 3.7739
45 0.270582 3.44757
46 0.0828967 3.07717
47 0.0970049 3.3611
48 0.117014 3.91992
49 0.203061 2.95484
50 0.105027 3.74991
51 0.210013 2.95998
52 0.169966 3.25006
53 0.207254 3.74792
54 0.836845 3.84961
55 0.329921 3.26983
56 0.0663015 3.58118
57 0.455513 3.30769
58 0 0
59 0.329921 3.26983
60 0.580843 3.89995
61 0.119432 3.40025
62 0.1399 3.9019
63 0.0734574 3.52053
64 0.245018 2.81144
65 0.142655 4.06776
66 0.219779 3.64529
67 0.119497 3.1
68 0.584786 3.38557
69 0.584786 3.38557
70 0.1553 3.166
71 0 0

Bond Coeffs # harmonic

1 375.239 1
2 446.941 1
3 349.274 1.09
4 1109.29 1.12
5 600.242 1.23
6 500.418 1.25
7 499.732 1.32
8 375.003 1.33
9 448.144 1.33
10 498.877 1.33
11 450.617 1.34
12 502.116 1.34
13 450.906 1.36
14 500.679 1.38
15 399.904 1.39
16 498.726 1.39
17 400.057 1.4
18 399.792 1.43
19 450.132 1.43
20 300.222 1.435
21 449.843 1.47
22 299.976 1.48
23 399.968 1.48
24 450.226 1.48
25 450.108 1.5
26 299.844 1.52
27 400.034 1.53
28 299.851 1.61
29 299.727 1.63
30 205.976 1.78
31 449.816 1.78
32 449.828 1.83
33 300.045 1.87
34 59.9679 1.98
35 60.0382 2
36 500.307 2.04
37 63.0357 2.21
38 554.493 1
39 349.928 1.1
40 599.794 1.758
41 449.829 1.53
42 444.341 1.93799
43 599.679 1.76
44 501.026 1.265
45 448.656 1.35
46 555.129 1.63299
47 350.249 2.33839
48 600.161 2.90283
49 445.884 2.79388
50 443.815 2.91189
51 409.328 2.077
52 600.173 2.87407
53 88.4321 1.1
54 56.1663 1.84
55 513.862 1.01
56 310.707 1.41
57 442.161 1.02
58 239.006 1.46
59 513.862 1.29
60 442.161 0.972
61 812.62 1.22
62 466.061 1.22
63 239.006 1.54
64 179.254 1.56
65 227.055 1.54
66 106.358 1.76
67 131.453 1.69
68 203.155 1.75
69 203.155 1.51
70 143.403 1.57
71 179.254 0.971
72 191.205 1.5
73 262.906 1.45
74 549.713 1.52
75 83.652 1.03
76 191.205 1.74
77 191.205 1.72
78 227.055 1.64
79 203.155 1.67
80 191.205 1.66
81 215.105 1.65
82 513.862 1.31
83 155.354 1.01
84 35.8509 1.89
85 101.577 1.93
86 155.354 1.36
87 167.304 1.79
88 114.723 1.35
89 155.354 1.39
90 203.155 1.38
91 227.055 0.983
92 155.354 1.3
93 418.26 1.08
94 155.354 1.9
95 1314.53 1.16
96 143.403 1.8
97 155.354 1.42
98 478.011 0.984
99 119.503 1.08
100 119.503 1.91
101 418.26 1.03
102 525.813 1.28
103 131.453 1.22
104 143.403 1.11
105 1195.03 1.21
106 466.061 1.07
107 956.023 1.21
108 693.117 1.21
109 87.2371 1.85
110 394.359 1.11
111 109.943 2.09
112 131.453 1.82
113 99.1874 1.96
114 56.1663 1.86
115 167.304 1.21
116 167.304 1.28
117 143.403 1.71
118 131.453 1.6
119 454.111 1.21
120 41.826 1.61
121 131.453 1.94
122 155.354 1.59
123 143.403 2.1
124 119.503 2.12
125 57.3614 2.13
126 203.155 1.26
127 1195.03 1.14
128 191.205 1.23
129 788.719 1.3
130 239.006 1.31
131 59.7514 2.04
132 82.457 1.34
133 621.415 0.938
134 310.707 1.16
135 34.6558 2.07
136 60.9465 1.16
137 93.2122 2.16
138 43.021 2.23
139 23.9006 2.05
140 896.272 1.19
141 728.967 1.47
142 394.359 1.57
143 1195.03 1.18
144 54.9713 1.87
145 1063.58 1.17
146 215.105 1.13
147 59.7514 2.02
148 179.254 1.07
149 250.956 1.14
150 155.354 1.06
151 537.763 1.46
152 812.62 1.17
153 92.0172 2.15
154 239.006 1.04
155 60.9465 1.4
156 1314.53 1.11
157 466.061 1.56
158 752.868 1.49
159 501.912 1.54
160 35.8509 2.17
161 35.8509 2.27
162 669.216 1.45
163 764.818 1.25
164 848.47 1.27
165 561.663 1.16
166 1434.03 1.14
167 501.912 1.17
168 537.763 1.19
169 920.172 1.14
170 227.055 1.24
171 1434.03 1.13
172 89.6272 2.91
173 57.3614 2.24
174 418.26 0.743
175 239.006 1.2
176 111.138 2.33
177 96.7973 2.42
178 83.652 1.32
179 1159.18 1.2
180 1314.53 1.2
181 430.21 1.58
182 53.7763 1.47
183 1.55354 2.77
184 5.13862 2.25
185 100.382 2.18
186 50.1912 1.52
187 93.2122 2.19
188 27.4857 1.48
189 1912.05 1.07
190 8.60421 2.8
191 87.2371 2.52
192 0.669216 2.79
193 812.62 1.16
194 1.79254 2.68
195 406.31 1.59
196 119.503 1.18
197 34.6558 2.54
198 1792.54 1.1
199 824.57 1.29
200 33.4608 2.44
201 107.553 2.41
202 112.333 2.36
203 20.3155 1.43
204 2.27055 2.57
205 19.1205 2.47
206 0.764818 2.71
207 1553.54 1.12
208 3.70459 2.75
209 501.912 1.14
210 0.717017 2.86
211 10.5163 2.64
212 1912.05 0.985
213 1.91205 2.61
214 7.40918 2.62
215 59.7514 2.46
216 3.58509 2.66
217 1.31453 2.72
218 58.5564 1.63
219 573.614 1.12
220 37.0459 2.32
221 16.7304 1.44
222 1553.54 1.16
223 7.17017 2.69
224 10.0382 2.49
225 3.22658 2.92
226 0.82457 2.29
227 9.79924 2.4
228 1.03967 2.37
229 1.55354 2.94
230 5.85564 2.95
231 1.67304 2.96
232 0.0131453 2.56
233 5.25813 2.59
234 15.5354 2.38
235 836.52 1.12
236 1.91205 2.5
237 2.39006 2.3
238 585.564 1.04
239 3.34608 2.99
240 0.967973 2.34
241 1.07553 2.98
242 2.27055 2.74
243 1063.58 1.16
244 812.62 1.5
245 1.31453 2.84
246 0.322658 2.82
247 908.222 1.23
248 466.061 1.05
249 3.34608 2.88
250 1434.03 1.18
251 1673.04 1.15
252 6.33365 2.9
253 0 0
254 100 1

Angle Coeffs # harmonic

1 45.3116 90
2 50.0917 90
3 47.7712 96
4 54.9551 100
5 47.5559 103
6 55.0345 104
7 50.1709 108
8 30.1731 109.5
9 33.8897 109.5
10 40.2609 109.5
11 45.0394 109.5
12 47.694 109.5
13 55.1272 109.5
14 47.635 109.6
15 55.1139 111
16 55.0997 113
17 4.824 115
18 45.0699 115
19 59.7937 115
20 44.8085 116
21 59.7719 116
22 60.1639 117
23 34.88 120
24 39.8095 120
25 45.1871 120
26 47.4278 120
27 50.1166 120
28 59.9756 120
29 69.8346 120
30 60.0726 121
31 60.091 122
32 34.8146 123
33 59.8929 124
34 30.0075 125
35 60.0779 125
36 44.9139 126
37 49.998 126
38 60.166 126
39 50.1189 132
40 47.5187 155
41 28.4971 180
42 45.9951 109.5
43 52.4767 107.57
44 65.472 111.3
45 55.0189 97.4
46 55.0247 106.75
47 47.5019 108.53
48 65.5335 109.5
49 54.9566 107.6
50 47.4817 109.5
51 54.9931 110.3
52 55.0234 111.4
53 60.044 117.2
54 60.0023 121.4
55 48.24 180
56 180.46 109
57 192.229 106
58 145.153 126
59 145.153 96.2
60 156.922 114
61 203.998 119
62 239.306 130
63 298.152 107
64 156.922 134
65 239.306 101
66 286.382 113
67 368.766 134
68 356.997 119
69 333.459 126
70 251.075 89.6
71 380.536 114
72 286.382 135
73 145.153 88.3
74 133.384 60
75 380.536 179
76 251.075 180
77 470.766 178
78 47.0766 59.9
79 47.0766 60.3
80 251.075 124
81 706.149 118
82 117.691 144
83 627.688 123
84 470.766 118
85 333.459 94.8
86 90.2301 175
87 156.922 82.8
88 117.691 77.6
89 239.306 145
90 251.075 50.8
91 380.536 104
92 262.844 84.4
93 215.768 63.3
94 215.768 61
95 298.152 173
96 192.229 173
97 82.384 50.9
98 431.535 127
99 62.7688 67.8
100 156.922 180
101 588.457 118
102 30.1731 110
103 227.537 94.8
104 431.535 173
105 34.5228 78.5
106 70.6149 138
107 70.6149 168
108 156.922 167
109 18.046 149
110 333.459 144
111 356.997 148
112 321.69 144
113 356.997 148
114 321.69 147
115 333.459 144
116 5099.96 60.8
117 1451.53 68
118 298.152 161
119 156.922 155
120 309.921 154
121 215.768 75.3
122 309.921 64.7
123 549.227 173
124 3334.59 45.8
125 863.071 123
126 549.227 123
127 470.766 166
128 380.536 166
129 203.998 139
130 66.6918 161
131 7.45379 44.9
132 25.1075 84.8
133 192.229 161
134 333.459 70.4
135 627.688 173
136 1.92229 51.6
137 21.5768 73.3
138 7.45379 174
139 470.766 132
140 145.153 69.9
141 15.6922 144
142 1922.29 97.9
143 392.305 155
144 588.457 104
145 117.691 149
146 509.996 157
147 286.382 166
148 333.459 89.8
149 392.305 79.1
150 6669.18 45.2
151 470.766 101
152 745.379 125
153 168.691 49.6
154 509.996 112
155 100 109.47

Dihedral Coeffs # harmonic

1 0.638145 -1 1
2 0.81501 -1 1
3 1.18786 -1 1
4 1.40057 -1 1
5 2.2347 -1 1
6 2.2586 -1 1
7 0.666826 1 1
8 1.27868 1 1
9 0.365679 -1 2
10 1.40057 -1 2
11 1.69933 -1 2
12 3.9914 -1 2
13 5.73614 -1 2
14 8.00669 -1 2
15 9.99044 -1 2
16 0 1 2
17 0.0999044 1 2
18 0.499522 1 2
19 0.750478 1 2
20 1.21654 1 2
21 3.9914 1 2
22 0.250956 1 3
23 0.301147 1 3
24 0.310707 1 3
25 0.604685 1 3
26 0.700287 1 3
27 0.762428 1 3
28 0.872371 1 3
29 0.901052 1 3
30 0.932122 1 3
31 0.999044 1 3
32 1.12094 1 3
33 1.30019 1 3
34 1.41491 1 3
35 1.83795 1 3
36 2.06023 1 3
37 2.27055 1 3
38 0 1 4
39 0.239006 -1 6
40 0.239006 1 6
41 0.901052 1 6
42 0.83652 -1 2
43 0.669216 1 3
44 0.167304 -1 6
45 0.0956023 1 6
46 0.239006 -1 3
47 0 1 1

Improper Coeffs # harmonic

1 20.0075 0
2 40.0151 35.2644
3 80.0302 0
4 20.0075 180
5 40.0151 -35.2644

Atoms # full

10 1 20 3.2000000000000001e-02 1.9468634144120184e+01 2.0127854656722597e+01 1.7948326794374825e+01 0 0 0
8 1 20 3.1000000000000000e-02 1.9302630264952779e+01 1.8887607250218117e+01 1.9975308099361765e+01 0 0 0
2 1 12 1.6600000000000001e-01 1.9814649929765146e+01 1.9857106953634531e+01 2.0048628498553843e+01 0 0 0
7 1 67 -6.1099999999999999e-01 1.9446737053219433e+01 2.0498113650700283e+01 2.1284931475171206e+01 0 0 0
13 1 21 3.9800000000000002e-01 1.8642012802120870e+01 2.1007185405829741e+01 2.1077324466104052e+01 0 0 0
3 1 64 1.5800000000000000e-01 1.9382172138419037e+01 2.0709766074962094e+01 1.8860892309515329e+01 0 0 0
9 1 67 -6.3100000000000001e-01 1.8009138480886900e+01 2.1085701649067015e+01 1.9074219820507743e+01 0 0 0
11 1 20 3.2000000000000001e-02 2.0025513768302346e+01 2.1574953081146909e+01 1.8746184119461880e+01 0 0 0
12 1 58 4.1699999999999998e-01 1.7732491786589492e+01 2.1466810754680321e+01 1.8440811894917061e+01 0 0 0
6 1 20 3.2000000000000001e-02 2.1622075608500580e+01 1.8856689153610311e+01 2.0629184413404978e+01 0 0 0
14 1 21 4.1699999999999998e-01 2.2019956973164458e+01 2.1092673929480586e+01 2.1034221702095717e+01 0 0 0
1 1 64 1.5800000000000000e-01 2.1322299864676026e+01 1.9625353701467724e+01 1.9923371494701573e+01 0 0 0
5 1 20 3.2000000000000001e-02 2.1501702230896480e+01 1.9213657051135861e+01 1.8934131224108381e+01 0 0 0
4 1 67 -6.3100000000000001e-01 2.2126997415211175e+01 2.0797684220751346e+01 2.0094347972159106e+01 0 0 0
23 2 67 -6.3100000000000001e-01 5.8721714598061169e+01 1.8712514034770056e+01 2.0082438361261495e+01 0 0 0
26 2 58 4.1699999999999998e-01 5.8010843646619051e+01 1.8700276456989865e+01 2.0766470418128229e+01 0 0 0
16 2 12 1.6600000000000001e-01 6.0708866102920069e+01 1.9893138248884885e+01 1.9278698628234920e+01 0 0 0
22 2 20 3.1000000000000000e-02 6.0425464477090294e+01 1.9693915673904975e+01 1.8236418756449453e+01 0 0 0
21 2 67 -6.1099999999999999e-01 6.1550466375641335e+01 1.8833493572920773e+01 1.9773160413171219e+01 0 0 0
27 2 21 3.9800000000000002e-01 6.0988645624261061e+01 1.8026257101738924e+01 1.9862762597845915e+01 0 0 0
17 2 64 1.5800000000000000e-01 5.9431097913808230e+01 1.9960643962057890e+01 2.0118870049544526e+01 0 0 0
24 2 20 3.2000000000000001e-02 5.8801383309753298e+01 2.0757700193035070e+01 1.9738866352728106e+01 0 0 0
25 2 20 3.2000000000000001e-02 5.9685068653512722e+01 2.0225772882864444e+01 2.1139412432465463e+01 0 0 0
20 2 20 3.2000000000000001e-02 6.2264049499476599e+01 2.1229824282799324e+01 1.8633862952206822e+01 0 0 0
28 2 21 4.1699999999999998e-01 6.2300071253304317e+01 2.0597093807678458e+01 2.1004214672163624e+01 0 0 0
15 2 64 1.5800000000000000e-01 6.1447938593837442e+01 2.1233980629246403e+01 1.9351054895567835e+01 0 0 0
19 2 20 3.2000000000000001e-02 6.0772903655263406e+01 2.2031631289892299e+01 1.9050571951240876e+01 0 0 0
18 2 67 -6.3100000000000001e-01 6.1946574345818341e+01 2.1465571636736168e+01 2.0670749218457619e+01 0 0 0
31 3 64 1.5800000000000000e-01 1.0044633813498967e+02 2.2035455288229507e+01 2.0385017952511753e+01 0 0 0
35 3 67 -6.1099999999999999e-01 1.0012352695645647e+02 1.9636484658041390e+01 2.0431959603764238e+01 0 0 0
36 3 20 3.1000000000000000e-02 1.0026534945409188e+02 2.0755542783228361e+01 1.8673715053431756e+01 0 0 0
38 3 20 3.2000000000000001e-02 1.0088931121586583e+02 2.2839566880047009e+01 1.9807630879957948e+01 0 0 0
39 3 20 3.2000000000000001e-02 1.0094313862406382e+02 2.2033587447787170e+01 2.1349247733566319e+01 0 0 0
30 3 12 1.6600000000000001e-01 1.0071650002792211e+02 2.0706974377889701e+01 1.9673884807004143e+01 0 0 0
32 3 67 -6.3100000000000001e-01 1.0280573913551868e+02 2.0168963281808615e+01 2.0807178821873247e+01 0 0 0
33 3 20 3.2000000000000001e-02 1.0269036784292130e+02 2.1332791965165825e+01 1.9081522654986799e+01 0 0 0
29 3 64 1.5800000000000000e-01 1.0222347290095161e+02 2.0460992799191239e+01 1.9532762761488726e+01 0 0 0
42 3 21 4.1699999999999998e-01 1.0216296891291650e+02 1.9552232530718037e+01 2.1253752916596433e+01 0 0 0
34 3 20 3.2000000000000001e-02 1.0238274352870933e+02 1.9632937340956982e+01 1.8847232347724667e+01 0 0 0
41 3 21 3.9800000000000002e-01 9.9215064148272702e+01 1.9925902233659183e+01 2.0688117751825789e+01 0 0 0
37 3 67 -6.3100000000000001e-01 9.9034546628997987e+01 2.2258676845507296e+01 2.0542309689536584e+01 0 0 0
40 3 58 4.1699999999999998e-01 9.8867841851837397e+01 2.3087390039210565e+01 2.1047178622418020e+01 0 0 0
46 4 67 -6.3100000000000001e-01 1.4199180126033863e+02 2.0841989157932282e+01 1.9986477793135787e+01 0 0 0
48 4 20 3.2000000000000001e-02 1.4196911818450508e+02 2.1145845140634140e+01 1.7933692836997682e+01 0 0 0
47 4 20 3.2000000000000001e-02 1.4150154922473294e+02 2.2534058485355416e+01 1.8878872609243778e+01 0 0 0
56 4 21 4.1699999999999998e-01 1.4173105057676651e+02 1.9882844984594215e+01 1.9971026654270990e+01 0 0 0
43 4 64 1.5800000000000000e-01 1.4142335617234485e+02 2.1451083741876456e+01 1.8822486815268149e+01 0 0 0
54 4 58 4.1699999999999998e-01 1.3722449439360787e+02 2.1543678274898369e+01 2.0475679449869169e+01 0 0 0
53 4 20 3.2000000000000001e-02 1.3952957351190310e+02 2.1258223520889391e+01 2.0761938380855767e+01 0 0 0
51 4 67 -6.3100000000000001e-01 1.3774322226897056e+02 2.1240272265537978e+01 1.9695736308957986e+01 0 0 0
52 4 20 3.2000000000000001e-02 1.3921884293224727e+02 2.2704280295990380e+01 1.9843283551392460e+01 0 0 0
45 4 64 1.5800000000000000e-01 1.3912307712214348e+02 2.1623742780199851e+01 1.9824960240381834e+01 0 0 0
55 4 21 3.9800000000000002e-01 1.3885399033302554e+02 1.9411694515987350e+01 1.8732501059916260e+01 0 0 0
49 4 67 -6.1099999999999999e-01 1.3981574635234239e+02 1.9623534508471451e+01 1.8646898639719545e+01 0 0 0
44 4 12 1.6600000000000001e-01 1.3994822060956494e+02 2.1058421673779222e+01 1.8664673948967714e+01 0 0 0
50 4 20 3.1000000000000000e-02 1.3956179073994440e+02 2.1483471144278155e+01 1.7728286281555082e+01 0 0 0
60 5 67 -6.3100000000000001e-01 1.8129648767506606e+02 1.8740245198440164e+01 1.9608517740378002e+01 0 0 0
61 5 20 3.2000000000000001e-02 1.8155273554523902e+02 2.0777677786663428e+01 1.9217940827865235e+01 0 0 0
57 5 64 1.5800000000000000e-01 1.8087613400188943e+02 1.9959654193796982e+01 1.8982720753617954e+01 0 0 0
70 5 21 4.1699999999999998e-01 1.8058364873923679e+02 1.8067022408413340e+01 1.9480711657607298e+01 0 0 0
68 5 58 4.1699999999999998e-01 1.7785105691546727e+02 2.1023570444113389e+01 2.1949787390519319e+01 0 0 0
67 5 20 3.2000000000000001e-02 1.7917554892143400e+02 1.9461495558677054e+01 2.1395831284800924e+01 0 0 0
65 5 67 -6.3100000000000001e-01 1.7810120261218242e+02 2.1215280639599584e+01 2.1263659387746415e+01 0 0 0
66 5 20 3.2000000000000001e-02 1.8016907691009962e+02 2.0890049601960389e+01 2.1403756536664794e+01 0 0 0
59 5 64 1.5800000000000000e-01 1.7928592540054257e+02 2.0449555052090471e+01 2.0959869177935552e+01 0 0 0
69 5 21 3.9800000000000002e-01 1.7771739983421924e+02 1.9590718067813306e+01 1.8888995067819973e+01 0 0 0
63 5 67 -6.1099999999999999e-01 1.7861412968480124e+02 1.9241154220933918e+01 1.9035604687879207e+01 0 0 0
64 5 20 3.1000000000000000e-02 1.7914009870873466e+02 2.1234373110788422e+01 1.8961084532159070e+01 0 0 0
58 5 12 1.6600000000000001e-01 1.7946404260241496e+02 2.0306517108713599e+01 1.9449112919977914e+01 0 0 0
62 5 20 3.2000000000000001e-02 1.8086868374378943e+02 1.9857115284147557e+01 1.7899419166059019e+01 0 0 0
83 6 21 3.9800000000000002e-01 1.8731638681999446e+01 5.8304040820218844e+01 1.9974743960040193e+01 0 0 0
118 9 20 3.2000000000000001e-02 1.4155458827870427e+02 5.7780729170300425e+01 1.9126236324793531e+01 0 0 0
135 10 67 -6.3100000000000001e-01 1.8112753901660940e+02 5.8114618375638564e+01 2.0447276722531964e+01 0 0 0
138 10 58 4.1699999999999998e-01 1.8058702063886952e+02 5.7565167468662381e+01 1.9835665831371550e+01 0 0 0
78 6 20 3.1000000000000000e-02 1.8579950104366535e+01 6.0593373311174361e+01 1.9279310151701441e+01 0 0 0
72 6 12 1.6600000000000001e-01 1.9342766252728932e+01 6.0168284430864212e+01 1.9946539485895673e+01 0 0 0
77 6 67 -6.1099999999999999e-01 1.9537588609152984e+01 5.8772854886441500e+01 1.9647627798826463e+01 0 0 0
73 6 64 1.5800000000000000e-01 1.8863526230575378e+01 6.0313759471684072e+01 2.1381803569224960e+01 0 0 0
80 6 20 3.2000000000000001e-02 1.8728875064713836e+01 6.1358513656821621e+01 2.1639283126987305e+01 0 0 0
79 6 67 -6.3100000000000001e-01 1.7633789769886889e+01 5.9601748756957257e+01 2.1421282054372934e+01 0 0 0
81 6 20 3.2000000000000001e-02 1.9586906414410926e+01 5.9892501873891547e+01 2.2073008963516170e+01 0 0 0
82 6 58 4.1699999999999998e-01 1.7160362350842721e+01 5.9900855905319240e+01 2.2216684629055752e+01 0 0 0
76 6 20 3.2000000000000001e-02 2.0954566527891053e+01 6.0889199254225097e+01 1.8736576923702568e+01 0 0 0
84 6 21 4.1699999999999998e-01 2.1635169173808116e+01 5.9383108750519646e+01 2.0486341413572745e+01 0 0 0
71 6 64 1.5800000000000000e-01 2.0652408455199570e+01 6.0930864282874722e+01 1.9779111344186774e+01 0 0 0
75 6 20 3.2000000000000001e-02 2.0490604540237783e+01 6.1979239358213952e+01 2.0016220514610410e+01 0 0 0
74 6 67 -6.3100000000000001e-01 2.1665863734594680e+01 6.0367768224161267e+01 2.0616396514933513e+01 0 0 0
93 7 67 -6.3100000000000001e-01 5.8281106487833284e+01 6.0812669673076833e+01 1.9566914979983562e+01 0 0 0
96 7 58 4.1699999999999998e-01 5.8157675412090597e+01 6.1613241971185744e+01 1.9008022046894997e+01 0 0 0
95 7 20 3.2000000000000001e-02 5.9129645615618678e+01 6.1818166796185309e+01 2.1149538975951156e+01 0 0 0
87 7 64 1.5800000000000000e-01 5.9387423444816385e+01 6.1022803101004989e+01 2.0459123092940420e+01 0 0 0
97 7 21 3.9800000000000002e-01 5.7889672989577093e+01 5.9397567833855618e+01 2.1532210686163722e+01 0 0 0
86 7 12 1.6600000000000001e-01 5.9810877784349600e+01 5.9792912744086401e+01 2.1282856888419253e+01 0 0 0
92 7 20 3.1000000000000000e-02 6.0127590444709895e+01 5.8986054621386295e+01 2.0606097262601928e+01 0 0 0
91 7 67 -6.1099999999999999e-01 5.8696600768742975e+01 5.9369299166110949e+01 2.2100383136433873e+01 0 0 0
94 7 20 3.2000000000000001e-02 6.0240560402915612e+01 6.1384258833580375e+01 1.9894229580737996e+01 0 0 0
90 7 20 3.2000000000000001e-02 6.1354011457971531e+01 5.9410412146791700e+01 2.2759401066617116e+01 0 0 0
98 7 21 4.1699999999999998e-01 5.9914501699516528e+01 6.1141895425857008e+01 2.3519795960042615e+01 0 0 0
85 7 64 1.5800000000000000e-01 6.1006945372877304e+01 6.0237309192267368e+01 2.2144506573390462e+01 0 0 0
89 7 20 3.2000000000000001e-02 6.1825770049031362e+01 6.0481029168337372e+01 2.1471287436826749e+01 0 0 0
88 7 67 -6.3100000000000001e-01 6.0685089908496820e+01 6.1392792876477039e+01 2.2949280776722208e+01 0 0 0
100 8 12 1.6600000000000001e-01 1.0021877727571544e+02 6.0473173806585287e+01 1.9694886781350199e+01 0 0 0
102 8 67 -6.3100000000000001e-01 1.0136116798477417e+02 5.9910597389435253e+01 2.1774778517046457e+01 0 0 0
103 8 20 3.2000000000000001e-02 1.0229207705551441e+02 6.0929803571045639e+01 2.0171352662094986e+01 0 0 0
99 8 64 1.5800000000000000e-01 1.0156699157527562e+02 6.0133788695161584e+01 2.0354437343384916e+01 0 0 0
112 8 21 4.1699999999999998e-01 1.0064826953356739e+02 5.9223605359711058e+01 2.1848367802928472e+01 0 0 0
104 8 20 3.2000000000000001e-02 1.0198596211067986e+02 5.9226237511327504e+01 1.9918344599525422e+01 0 0 0
106 8 20 3.1000000000000000e-02 1.0038938088838761e+02 6.0858706492626276e+01 1.8687047241793238e+01 0 0 0
108 8 20 3.2000000000000001e-02 1.0023838885827293e+02 6.2345658934136523e+01 2.0706537951615150e+01 0 0 0
111 8 21 3.9800000000000002e-01 9.8594585208952566e+01 5.9380015420490238e+01 1.9475013953193358e+01 0 0 0
101 8 64 1.5800000000000000e-01 9.9508380085899702e+01 6.1578236706409960e+01 2.0485639901400774e+01 0 0 0
107 8 67 -6.3100000000000001e-01 9.8430972014970791e+01 6.2176338667467988e+01 1.9783121625623782e+01 0 0 0
109 8 20 3.2000000000000001e-02 9.9150350517243751e+01 6.1168345228996785e+01 2.1421152906889166e+01 0 0 0
110 8 58 4.1699999999999998e-01 9.8214827927362251e+01 6.2894369945912089e+01 2.0021374212104796e+01 0 0 0
105 8 67 -6.1099999999999999e-01 9.9500222187973819e+01 5.9191212843582562e+01 1.9612830661307008e+01 0 0 0
116 9 67 -6.3100000000000001e-01 1.4225460940482591e+02 5.9137566937555007e+01 2.0527240823956255e+01 0 0 0
126 9 21 4.1699999999999998e-01 1.4170061318455674e+02 5.9759568937871201e+01 2.0981953986669698e+01 0 0 0
113 9 64 1.5800000000000000e-01 1.4161280007140377e+02 5.8857423545325823e+01 1.9267870118867407e+01 0 0 0
124 9 58 4.1699999999999998e-01 1.4162187425106191e+02 6.1663563720946172e+01 2.0329779254555078e+01 0 0 0
123 9 20 3.2000000000000001e-02 1.4073271156132731e+02 6.1398395573533847e+01 1.8405073842545800e+01 0 0 0
121 9 67 -6.3100000000000001e-01 1.4068725641746079e+02 6.1424081694177524e+01 2.0492146274074372e+01 0 0 0
122 9 20 3.2000000000000001e-02 1.3914434262629462e+02 6.1319325870317130e+01 1.9105429729977601e+01 0 0 0
115 9 64 1.5800000000000000e-01 1.4016767794049497e+02 6.0977593672534233e+01 1.9231006995040193e+01 0 0 0
119 9 67 -6.1099999999999999e-01 1.3933260788445887e+02 5.8854682309792601e+01 2.0109234194901582e+01 0 0 0
114 9 12 1.6600000000000001e-01 1.4019324920677454e+02 5.9443693109970845e+01 1.9126989866095492e+01 0 0 0
120 9 20 3.1000000000000000e-02 1.3980633433114923e+02 5.9160251038573151e+01 1.8140239321726870e+01 0 0 0
125 9 21 3.9800000000000002e-01 1.3890698989852578e+02 5.9596238492316139e+01 2.0660984385752585e+01 0 0 0
117 9 20 3.2000000000000001e-02 1.4223274272803758e+02 5.9233888010022127e+01 1.8457743955103822e+01 0 0 0
132 10 20 3.2000000000000001e-02 1.8310111148885449e+02 6.2240688584467343e+01 2.0804324254291632e+01 0 0 0
130 10 67 -6.3100000000000001e-01 1.8131970255858428e+02 6.2316407416908625e+01 1.9744519539720365e+01 0 0 0
131 10 20 3.2000000000000001e-02 1.8313450732594708e+02 6.1425108933023914e+01 1.9263897859868283e+01 0 0 0
127 10 64 1.5800000000000000e-01 1.8250988994724852e+02 6.1626381985529413e+01 2.0130710230951667e+01 0 0 0
140 10 21 4.1699999999999998e-01 1.8068592942996963e+02 6.2248981308897534e+01 2.0507304213704131e+01 0 0 0
137 10 20 3.2000000000000001e-02 1.8058251126659073e+02 5.9850046489466912e+01 1.9441101805790215e+01 0 0 0
136 10 20 3.2000000000000001e-02 1.8212647407486207e+02 5.9196116074109028e+01 1.8983113199509766e+01 0 0 0
129 10 64 1.5800000000000000e-01 1.8147096457361474e+02 5.9365217023263796e+01 1.9830427035976594e+01 0 0 0
139 10 21 3.9800000000000002e-01 1.8098687254162755e+02 5.9650496848136477e+01 2.2270976447206820e+01 0 0 0
133 10 67 -6.1099999999999999e-01 1.8130087031364820e+02 6.0530373302248947e+01 2.1954750141252841e+01 0 0 0
134 10 20 3.1000000000000000e-02 1.8309602612308427e+02 5.9822360456528614e+01 2.1154653734309491e+01 0 0 0
128 10 12 1.6600000000000001e-01 1.8216582105474086e+02 6.0302806584704790e+01 2.0823176384837385e+01 0 0 0
142 11 12 1.6600000000000001e-01 1.8227750242572217e+01 9.9996762530133140e+01 1.9753934673531493e+01 0 0 0
148 11 20 3.1000000000000000e-02 1.7400827128217493e+01 9.9831449327120467e+01 1.9049555983802410e+01 0 0 0
147 11 67 -6.1099999999999999e-01 1.8491266804365154e+01 9.8794500586589194e+01 2.0503487563114035e+01 0 0 0
153 11 21 3.9800000000000002e-01 1.7763212332838094e+01 9.8689592028238124e+01 2.1161890242948733e+01 0 0 0
146 11 20 3.2000000000000001e-02 1.9688814246176218e+01 9.9644719099986617e+01 1.8215667470739668e+01 0 0 0
154 11 21 4.1699999999999998e-01 2.0635031523429578e+01 9.9711016021525438e+01 2.0413366053618279e+01 0 0 0
163 12 67 -6.3100000000000001e-01 5.7658190029353811e+01 9.9886072388705244e+01 1.9985143189507465e+01 0 0 0
162 12 20 3.1000000000000000e-02 5.9789448089753918e+01 9.9275849986598459e+01 1.8441419905532900e+01 0 0 0
156 12 12 1.6600000000000001e-01 6.0031602566173063e+01 9.9669420678185304e+01 1.9437917225663973e+01 0 0 0
161 12 67 -6.1099999999999999e-01 6.0139548940706106e+01 9.8586054414300733e+01 2.0381644536088952e+01 0 0 0
167 12 21 3.9800000000000002e-01 5.9225729756290825e+01 9.8246527948323831e+01 2.0540753578850591e+01 0 0 0
160 12 20 3.2000000000000001e-02 6.2119225616359721e+01 9.9813180336061592e+01 1.8940652846628183e+01 0 0 0
180 13 58 4.1699999999999998e-01 9.7790173603933823e+01 9.9784034088733890e+01 2.1965558084296799e+01 0 0 0
182 13 21 4.1699999999999998e-01 1.0209676488425896e+02 9.9164034710266591e+01 2.0010524696674921e+01 0 0 0
179 13 20 3.2000000000000001e-02 1.0005442513249035e+02 9.9973378280746559e+01 2.1546527232691744e+01 0 0 0
181 13 21 3.9800000000000002e-01 9.9150393462169149e+01 9.8217771580188199e+01 1.9522665066300089e+01 0 0 0
177 13 67 -6.3100000000000001e-01 9.8056580033044270e+01 9.9723080536844989e+01 2.1019341973706322e+01 0 0 0
175 13 67 -6.1099999999999999e-01 9.9993158624363446e+01 9.8633354561959948e+01 1.9218502904816365e+01 0 0 0
196 14 21 4.1699999999999998e-01 1.4185126480623040e+02 9.9718590018383182e+01 2.0979482394063567e+01 0 0 0
188 14 20 3.2000000000000001e-02 1.4192059719654529e+02 9.9643924120220802e+01 1.8540312657341868e+01 0 0 0
195 14 21 3.9800000000000002e-01 1.3908383252067409e+02 9.8316628525315920e+01 2.0433795558010292e+01 0 0 0
189 14 67 -6.1099999999999999e-01 1.4000737440273676e+02 9.8537278685758679e+01 2.0162513912973505e+01 0 0 0
184 14 12 1.6600000000000001e-01 1.3995031135201054e+02 9.9755647670382800e+01 1.9395819344205336e+01 0 0 0
190 14 20 3.1000000000000000e-02 1.3948379984521566e+02 9.9562848501215385e+01 1.8420336167491207e+01 0 0 0
207 15 20 3.2000000000000001e-02 1.8050382647989073e+02 9.9736732229021271e+01 2.1735723079823519e+01 0 0 0
209 15 21 3.9800000000000002e-01 1.8023942112572590e+02 9.8072503650362563e+01 1.9409411862419400e+01 0 0 0
203 15 67 -6.1099999999999999e-01 1.8081298850171291e+02 9.8852443118873410e+01 1.9211832610207452e+01 0 0 0
205 15 67 -6.3100000000000001e-01 1.7875509095740290e+02 9.8734676103354133e+01 2.1223172800647472e+01 0 0 0
208 15 58 4.1699999999999998e-01 1.7860042017950121e+02 9.8537871765322848e+01 2.2176365974925385e+01 0 0 0
199 15 64 1.5800000000000000e-01 1.7964050140340802e+02 9.9858276786226142e+01 2.1090441884371536e+01 0 0 0
369 27 20 3.2000000000000001e-02 6.0951132124171508e+01 2.0847586379572409e+01 5.8187989298408525e+01 0 0 0
383 28 20 3.2000000000000001e-02 1.0084614205561971e+02 2.1210108982515557e+01 5.8222447591165746e+01 0 0 0
412 30 20 3.2000000000000001e-02 1.8256037203795589e+02 2.0032010560283876e+01 5.8261877205917898e+01 0 0 0
470 34 20 3.1000000000000000e-02 1.3860755770576233e+02 6.0843222717123076e+01 5.7991572773003092e+01 0 0 0
524 38 20 3.2000000000000001e-02 1.0177155658189342e+02 9.9862332760779609e+01 5.8257563917443136e+01 0 0 0
538 39 20 3.2000000000000001e-02 1.4160173526514700e+02 9.9794053870072744e+01 5.8324214338559983e+01 0 0 0
354 26 67 -6.3100000000000001e-01 2.1913942188460815e+01 1.9672876852307905e+01 6.0631121885410856e+01 0 0 0
355 26 20 3.2000000000000001e-02 2.1471581103956606e+01 2.1314209997628158e+01 5.9427253668050497e+01 0 0 0
351 26 64 1.5800000000000000e-01 2.1282101765762068e+01 2.0245187561073884e+01 5.9484173710465114e+01 0 0 0
364 26 21 4.1699999999999998e-01 2.1511585329849208e+01 1.8771632245438347e+01 6.0752895166034882e+01 0 0 0
356 26 20 3.2000000000000001e-02 2.1684615421242302e+01 1.9806963013336496e+01 5.8574932177089892e+01 0 0 0
362 26 58 4.1699999999999998e-01 1.7329636885631061e+01 2.1032680080990513e+01 6.1517708257856881e+01 0 0 0
361 26 20 3.2000000000000001e-02 1.9605190040804139e+01 2.0477820257219225e+01 6.1623753124625416e+01 0 0 0
359 26 67 -6.3100000000000001e-01 1.7721076851211105e+01 2.0562732918146811e+01 6.0745138416141288e+01 0 0 0
360 26 20 3.2000000000000001e-02 1.9355989008433596e+01 2.1834209959748481e+01 6.0561915636885573e+01 0 0 0
353 26 64 1.5800000000000000e-01 1.9141249271240767e+01 2.0778818066585210e+01 6.0690602085953273e+01 0 0 0
363 26 21 3.9800000000000002e-01 1.8575117149016886e+01 1.8480248121332536e+01 5.9972399953770378e+01 0 0 0