LAMMPS (15 Apr 2020)


# ----------------- Init Section -----------------

include "gen.in.init"

 # a variable named `cutoff` is required by GROMOS_54A7_ATB.lt
 variable cutoff equal 14.0 # Angstroms
 boundary p p p

        units real
        atom_style      full
        bond_style      harmonic
        angle_style     harmonic
        dihedral_style  harmonic
        improper_style  harmonic
        #pair_style      lj/cut/coul/cut ${cutoff}
        pair_style      lj/cut/coul/long   ${cutoff}
        pair_style      lj/cut/coul/long   14
        special_bonds lj 0.0 0.0 0.5 coul 0.0 0.0 1.0 angle yes dihedral yes
  	kspace_style pppm 1e-4

#package            gpu 4 newton off
# ----------------- Atom Definition Section -----------------

read_data "data.4"
  orthogonal box = (7.69646 7.69646 7.69646) to (52.3035 52.3035 52.3035)
  1 by 2 by 2 MPI processor grid
  reading atoms ...
  8661 atoms
  reading velocities ...
  8661 velocities
  scanning bonds ...
  1 = max bonds/atom
  scanning angles ...
  1 = max angles/atom
  reading bonds ...
  5774 bonds
  reading angles ...
  2887 angles
  2 = max # of 1-2 neighbors
  1 = max # of 1-3 neighbors
  1 = max # of 1-4 neighbors
  5774 = # of 1-3 neighbors before angle trim
  5774 = # of 1-3 neighbors after angle trim
  5774 = # of 1-4 neighbors before dihedral trim
  0 = # of 1-4 neighbors after dihedral trim
  2 = max # of special neighbors
  special bonds CPU = 0.00114036 secs
  read_data CPU = 0.0568125 secs

# ----------------- Settings Section -----------------

include "gen.in.settings"

       #     atom_id      mass
        mass 1            15.999400000
        mass 2           15.999400000
        mass 3           15.999400000
        mass 4           15.999400000
        mass 5           15.999400000
        mass 6            14.006700000
        mass 7           14.006700000
        mass 8           14.006700000
        mass 9           14.006700000
        mass 10           14.006700000
        mass 11           14.006700000
        mass 12            12.011000000
        mass 13          12.011000000
        mass 14          13.019000000
        mass 15          14.027000000
        mass 16          15.035000000
        mass 17          16.043000000
        mass 18         14.027000000
        mass 19          12.011000000
        mass 20            1.008000000
        mass 21             1.008000000
        mass 22           1.000000000
        mass 23            32.060000000
        mass 24         63.546000000
        mass 25         63.546000000
        mass 26           55.847000000
        mass 27         65.370000000
        mass 28         24.305000000
        mass 29         40.080000000
        mass 30           39.948000000
        mass 31            18.998400000
        mass 32           35.453000000
        mass 33           79.904000000
        mass 34         12.011000000
        mass 35         15.999400000
        mass 36          22.989800000
        mass 37          35.453000000
        mass 38         12.011000000
        mass 39        35.453000000
        mass 40          1.008000000
        mass 41        32.060000000
        mass 42        12.011000000
        mass 43        15.999400000
        mass 44         12.011000000
        mass 45        35.453000000
        mass 46         18.998400000
        mass 47         12.011000000
        mass 48        13.019000000
        mass 49         15.999400000
        mass 50        12.011000000
        mass 51        15.999400000
        mass 52        14.006700000
        mass 53         15.035000000
        mass 54            126.904470000
        mass 55        35.453000000
        mass 56            10.811000000
        mass 57           78.960000000
        mass 58          1.008000000
        mass 59        35.453000000
        mass 60        79.904000000
        mass 61        15.999400000
        mass 62         14.006700000
        mass 63         12.011000000
        mass 64         12.011000000
        mass 65         14.006700000
        mass 66         14.006700000
        mass 67         15.999400000
        mass 68           28.080000000
        mass 69            30.973800000
	## water spce
	mass 70 	15.9994
	mass 71		1.008
       #           atom_i       atom_j       epsilon                  sigma
        pair_coeff 1      1      3.057142739336137782E-01 2.760065475311210825E+00
        pair_coeff 1      2     3.550276087952778381E-01 2.692123523613648928E+00
        pair_coeff 2     2     4.122954462841457168E-01 2.625854035428913935E+00
        pair_coeff 1      3     2.204919358198741963E-01 2.914561468303898728E+00
        pair_coeff 2     3     1.353372555548385814E-01 3.161567388722811067E+00
        pair_coeff 3     3     2.030610329881481768E-01 2.954841833242532800E+00
        pair_coeff 1      4     2.779220672123761116E-01 2.804259278747785356E+00
        pair_coeff 2     4     3.227523716320707670E-01 2.735229449503375765E+00
        pair_coeff 3     4     2.030610329881481768E-01 2.954841833242532800E+00
        pair_coeff 4     4     2.526564247385237327E-01 2.849160707521389835E+00
        pair_coeff 1      5     1.928839685607480758E-01 3.016736863519489109E+00
        pair_coeff 2     5     1.183915722290306144E-01 3.272402037762298210E+00
        pair_coeff 3     5     1.776356026680076250E-01 3.058429331874637391E+00
        pair_coeff 4     5     1.776356026680076250E-01 3.058429331874637391E+00
        pair_coeff 5     5     1.553937103090970162E-01 3.165648283720967182E+00
        pair_coeff 1      6      1.694765154967038112E-01 3.064144913095461664E+00
        pair_coeff 2     6      9.205677104655286824E-02 3.392227199027124662E+00
        pair_coeff 3     6      1.381226695164660401E-01 3.170419479686534814E+00
        pair_coeff 4     6      1.381226695164660401E-01 3.170419479686534814E+00
        pair_coeff 5     6      1.208282223360083590E-01 3.281564455306036798E+00
        pair_coeff 6      6      1.529146624006174071E-01 3.136473222385702364E+00
        pair_coeff 1      7     1.295153862773237297E-01 3.204601223054668324E+00
        pair_coeff 2     7     7.949613606375653674E-02 3.476187697824344891E+00
        pair_coeff 3     7     1.192765986091082336E-01 3.248890049401691016E+00
        pair_coeff 4     7     1.192765986091082336E-01 3.248890049401691016E+00
        pair_coeff 5     7     1.043418826661619003E-01 3.362785957386363656E+00
        pair_coeff 6      7     8.113226830524199185E-02 3.485920696025768706E+00
        pair_coeff 7     7     7.006222102981565780E-02 3.572200188298519929E+00
        pair_coeff 1      8     9.498357859321329699E-02 3.374577969603924643E+00
        pair_coeff 2     8     3.498417334104661491E-02 3.985801065571819457E+00
        pair_coeff 3     8     8.747468933197311003E-02 3.421215940224123120E+00
        pair_coeff 4     8     8.747468933197311003E-02 3.421215940224123120E+00
        pair_coeff 5     8     7.652191525386708992E-02 3.541153054130216749E+00
        pair_coeff 6      8     1.529146624006174071E-01 3.136473222385702364E+00
        pair_coeff 7     8     5.138200694820247577E-02 3.761674922833770918E+00
        pair_coeff 8     8     1.529146624006174071E-01 3.136473222385702364E+00
        pair_coeff 1      9     1.582887664986303011E-01 3.099220950402574282E+00
        pair_coeff 2     9     9.715714619416199183E-02 3.361876561464794300E+00
        pair_coeff 3     9     1.457753106303604218E-01 3.142053380689358466E+00
        pair_coeff 4     9     1.457753106303604218E-01 3.142053380689358466E+00
        pair_coeff 5     9     1.275226702872701012E-01 3.252203929734818200E+00
        pair_coeff 6      9     9.915676463161025855E-02 3.371289499249087385E+00
        pair_coeff 7     9     8.562737496854166963E-02 3.454731772227725983E+00
        pair_coeff 8     9     6.279712962164887835E-02 3.637975809775669589E+00
        pair_coeff 9     9     1.046505125905587974E-01 3.341126193637144581E+00
        pair_coeff 1      10     1.356655582513865699E-01 3.179918240687398701E+00
        pair_coeff 2     10     4.996808371058240883E-02 3.755883439744826191E+00
        pair_coeff 3     10     1.249405711687586185E-01 3.223865938686866883E+00
        pair_coeff 4     10     1.249405711687586185E-01 3.223865938686866883E+00
        pair_coeff 5     10     1.092966648039405131E-01 3.336884579737899870E+00
        pair_coeff 6      10     1.529146624006174071E-01 3.136473222385702364E+00
        pair_coeff 7     10     7.338919800609181032E-02 3.544685827501989461E+00
        pair_coeff 8     10     1.529146624006174071E-01 3.136473222385702364E+00
        pair_coeff 9     10     8.969347936648916497E-02 3.428122195097171421E+00
        pair_coeff 10     10     1.529146624006174071E-01 3.136473222385702364E+00
        pair_coeff 1      11     1.468798483487794293E-01 3.138102939733744545E+00
        pair_coeff 2     11     5.409850998504587422E-02 3.706494309430008460E+00
        pair_coeff 3     11     1.352683199952084137E-01 3.181472734127216206E+00
        pair_coeff 4     11     1.352683199952084137E-01 3.181472734127216206E+00
        pair_coeff 5     11     1.183312681445888304E-01 3.293005202223091565E+00
        pair_coeff 6      11     1.529146624006174071E-01 3.136473222385702364E+00
        pair_coeff 7     11     7.945564380901472268E-02 3.498073904350435193E+00
        pair_coeff 8     11     1.529146624006174071E-01 3.136473222385702364E+00
        pair_coeff 9     11     9.710765810444493829E-02 3.383043060841536942E+00
        pair_coeff 10     11     1.529146624006174071E-01 3.136473222385702364E+00
        pair_coeff 11     11     1.529146624006174071E-01 3.136473222385702364E+00
        pair_coeff 1      12      1.423703976828447626E-01 3.143928959384971744E+00
        pair_coeff 2     12      1.653354984123153737E-01 3.066537799135407028E+00
        pair_coeff 3     12      1.294276342571315797E-01 3.194269134171567437E+00
        pair_coeff 4     12      1.294276342571315797E-01 3.194269134171567437E+00
        pair_coeff 5     12      1.015029251390483361E-01 3.367009660356621747E+00
        pair_coeff 6      12      1.006900148654086141E-01 3.351458328501519368E+00
        pair_coeff 7     12      1.006900148654086141E-01 3.351458328501519368E+00
        pair_coeff 8     12      1.006900148654086141E-01 3.351458328501519368E+00
        pair_coeff 9     12      1.006900148654086141E-01 3.351458328501519368E+00
        pair_coeff 10     12      1.006900148654086141E-01 3.351458328501519368E+00
        pair_coeff 11     12      1.006900148654086141E-01 3.351458328501519368E+00
        pair_coeff 12      12      6.630154972997068241E-02 3.581179283634555510E+00
        pair_coeff 1      13    2.260833879260638890E-02 4.280821861878790990E+00
        pair_coeff 2     13    2.625518382604388745E-02 4.175444871815595427E+00
        pair_coeff 3     13    2.055303526600580841E-02 4.349365815492619802E+00
        pair_coeff 4     13    2.055303526600580841E-02 4.349365815492619802E+00
        pair_coeff 5     13    1.611860721985387823E-02 4.584571963747981371E+00
        pair_coeff 6      13    1.598951752723829639E-02 4.563397031920107594E+00
        pair_coeff 7     13    1.598951752723829639E-02 4.563397031920107594E+00
        pair_coeff 8     13    1.598951752723829639E-02 4.563397031920107594E+00
        pair_coeff 9     13    1.598951752723829639E-02 4.563397031920107594E+00
        pair_coeff 10     13    1.598951752723829639E-02 4.563397031920107594E+00
        pair_coeff 11     13    1.598951752723829639E-02 4.563397031920107594E+00
        pair_coeff 12      13    1.052864867392752299E-02 4.876188605638604123E+00
        pair_coeff 13    13    1.671943466637953492E-03 6.639493148644640463E+00
        pair_coeff 1      14    8.326657659937299061E-02 3.721998163273249283E+00
        pair_coeff 2     14    9.669791731433396986E-02 3.630377213810442427E+00
        pair_coeff 3     14    7.569688781761180207E-02 3.781594305716371451E+00
        pair_coeff 4     14    7.569688781761180207E-02 3.781594305716371451E+00
        pair_coeff 5     14    5.936487660854102705E-02 3.986096356968000354E+00
        pair_coeff 6      14    5.888943890049144064E-02 3.967685626525647269E+00
        pair_coeff 7     14    5.888943890049144064E-02 3.967685626525647269E+00
        pair_coeff 8     14    5.888943890049144064E-02 3.967685626525647269E+00
        pair_coeff 9     14    5.888943890049144064E-02 3.967685626525647269E+00
        pair_coeff 10     14    5.888943890049144064E-02 3.967685626525647269E+00
        pair_coeff 11     14    5.888943890049144064E-02 3.967685626525647269E+00
        pair_coeff 12      14    3.877704325548127218E-02 4.239645007324696735E+00
        pair_coeff 13    14    6.157772581688245907E-03 5.772765628111153013E+00
        pair_coeff 14    14    2.267909407489697785E-02 5.019181773522026546E+00
        pair_coeff 1      15    1.731972553779473067E-01 3.351793382524915543E+00
        pair_coeff 2     15    2.011348918568659772E-01 3.269285418082499728E+00
        pair_coeff 3     15    1.574520503435884455E-01 3.405461854969619839E+00
        pair_coeff 4     15    1.574520503435884455E-01 3.405461854969619839E+00
        pair_coeff 5     15    1.234809225305322361E-01 3.589623316644059425E+00
        pair_coeff 6      15    1.224919962470180784E-01 3.573043790873992709E+00
        pair_coeff 7     15    1.224919962470180784E-01 3.573043790873992709E+00
        pair_coeff 8     15    1.224919962470180784E-01 3.573043790873992709E+00
        pair_coeff 9     15    1.224919962470180784E-01 3.573043790873992709E+00
        pair_coeff 10     15    1.224919962470180784E-01 3.573043790873992709E+00
        pair_coeff 11     15    1.224919962470180784E-01 3.573043790873992709E+00
        pair_coeff 12      15    8.065754277175206377E-02 3.817953007077415251E+00
        pair_coeff 13    15    1.280837226587758920E-02 5.198583336794016851E+00
        pair_coeff 14    15    4.717327178141728083E-02 4.519953937695086132E+00
        pair_coeff 15    15    9.812197803026967424E-02 4.070381293353582564E+00
        pair_coeff 1      16    2.517150719017874350E-01 3.216286733597559344E+00
        pair_coeff 2     16    2.923180488930291476E-01 3.137114409660223480E+00
        pair_coeff 3     16    2.288318835470794788E-01 3.267785491497223305E+00
        pair_coeff 4     16    2.288318835470794788E-01 3.267785491497223305E+00
        pair_coeff 5     16    1.794601723072659361E-01 3.444501654585188533E+00
        pair_coeff 6      16    1.780229229119614787E-01 3.428592407594721170E+00
        pair_coeff 7     16    1.780229229119614787E-01 3.428592407594721170E+00
        pair_coeff 8     16    1.780229229119614787E-01 3.428592407594721170E+00
        pair_coeff 9     16    1.780229229119614787E-01 3.428592407594721170E+00
        pair_coeff 10     16    1.780229229119614787E-01 3.428592407594721170E+00
        pair_coeff 11     16    1.780229229119614787E-01 3.428592407594721170E+00
        pair_coeff 12      16    1.172230999498745652E-01 3.663600408719620116E+00
        pair_coeff 13    16    1.861496210673063006E-02 4.988414472922134912E+00
        pair_coeff 14    16    6.855895881485152277E-02 4.337220773235620719E+00
        pair_coeff 15    16    1.426049200441300291E-01 3.905823498176049124E+00
        pair_coeff 16    16    2.072539060975635561E-01 3.747918462531858008E+00
        pair_coeff 1      17    3.038575184606040480E-01 3.199953592715625295E+00
        pair_coeff 2     17    3.528713488103634721E-01 3.121183326439165739E+00
        pair_coeff 3     17    2.762341076914582305E-01 3.251190826523163935E+00
        pair_coeff 4     17    2.762341076914582305E-01 3.251190826523163935E+00
        pair_coeff 5     17    2.166351113098009262E-01 3.427009578955020341E+00
        pair_coeff 6      17    2.149001375898457467E-01 3.411181123260212722E+00
        pair_coeff 7     17    2.149001375898457467E-01 3.411181123260212722E+00
        pair_coeff 8     17    2.149001375898457467E-01 3.411181123260212722E+00
        pair_coeff 9     17    2.149001375898457467E-01 3.411181123260212722E+00
        pair_coeff 10     17    2.149001375898457467E-01 3.411181123260212722E+00
        pair_coeff 11     17    2.149001375898457467E-01 3.411181123260212722E+00
        pair_coeff 12      17    1.415057111515590771E-01 3.644995692608442361E+00
        pair_coeff 13    17    2.247102705950117241E-02 4.963082006288297876E+00
        pair_coeff 14    17    8.276085709262456791E-02 4.315195237643504100E+00
        pair_coeff 15    17    1.721453419435647891E-01 3.885988710192354478E+00
        pair_coeff 16    17    2.501862805523388245E-01 3.728885557404626905E+00
        pair_coeff 17    17    3.020120399909287934E-01 3.709949306321822071E+00
        pair_coeff 1      18   1.871351497334000635E-01 3.303836737441132154E+00
        pair_coeff 2     18   2.173210425425619319E-01 3.222509276900889397E+00
        pair_coeff 3     18   1.701228633940000401E-01 3.356737334425898833E+00
        pair_coeff 4     18   1.701228633940000401E-01 3.356737334425898833E+00
        pair_coeff 5     18   1.334179394271841901E-01 3.538263858666045536E+00
        pair_coeff 6      18   1.323494301847202848E-01 3.521921548721142159E+00
        pair_coeff 7     18   1.323494301847202848E-01 3.521921548721142159E+00
        pair_coeff 8     18   1.323494301847202848E-01 3.521921548721142159E+00
        pair_coeff 9     18   1.323494301847202848E-01 3.521921548721142159E+00
        pair_coeff 10     18   1.323494301847202848E-01 3.521921548721142159E+00
        pair_coeff 11     18   1.323494301847202848E-01 3.521921548721142159E+00
        pair_coeff 12      18   8.714838644978782634E-02 3.763326663382849269E+00
        pair_coeff 13    18   1.383911457826323375E-02 5.124203269895830637E+00
        pair_coeff 14    18   5.096949867344095775E-02 4.455283535302380749E+00
        pair_coeff 15    18   1.060182565293115581E-01 4.012143267090165999E+00
        pair_coeff 16    18   1.540809235512614617E-01 3.849939924851243589E+00
        pair_coeff 17    18   1.859985845053877540E-01 3.830388928193292131E+00
        pair_coeff 18   18   1.145499809843573136E-01 3.954738496352121491E+00
        pair_coeff 1      19    1.916455257379301724E-01 3.213399033460031529E+00
        pair_coeff 2     19    2.225589661339335279E-01 3.134297793337560201E+00
        pair_coeff 3     19    1.742232052163001366E-01 3.264851553886924496E+00
        pair_coeff 4     19    1.742232052163001366E-01 3.264851553886924496E+00
        pair_coeff 5     19    1.366336104191038237E-01 3.441409054725308003E+00
        pair_coeff 6      19    1.355393477120732659E-01 3.425514091640016634E+00
        pair_coeff 7     19    1.355393477120732659E-01 3.425514091640016634E+00
        pair_coeff 8     19    1.355393477120732659E-01 3.425514091640016634E+00
        pair_coeff 9     19    1.355393477120732659E-01 3.425514091640016634E+00
        pair_coeff 10     19    1.355393477120732659E-01 3.425514091640016634E+00
        pair_coeff 11     19    1.355393477120732659E-01 3.425514091640016634E+00
        pair_coeff 12      19    8.924885764206048899E-02 3.660311093966183371E+00
        pair_coeff 13    19    1.417266821800791839E-02 4.983935691534572499E+00
        pair_coeff 14    19    5.219797768503835894E-02 4.333326657424202644E+00
        pair_coeff 15    19    1.085735338300921060E-01 3.902316706653073286E+00
        pair_coeff 16    19    1.577946187139902257E-01 3.744553443938634096E+00
        pair_coeff 17    19    1.904815667437584348E-01 3.725537627251366946E+00
        pair_coeff 18   19    1.173108919424925706E-01 3.846483307649072980E+00
        pair_coeff 19    19    1.201383470349284138E-01 3.741191446582464053E+00
        pair_coeff 1      20     9.300420140216696108E-02 2.559445618447809156E+00
        pair_coeff 2     20     1.080062726770026210E-01 2.496442138227286112E+00
        pair_coeff 3     20     8.454927400196994569E-02 2.600427123263571172E+00
        pair_coeff 4     20     8.454927400196994569E-02 2.600427123263571172E+00
        pair_coeff 5     20     6.630731279946860957E-02 2.741053705029336207E+00
        pair_coeff 6      20     6.577627494299018163E-02 2.728393499060382865E+00
        pair_coeff 7     20     6.577627494299018163E-02 2.728393499060382865E+00
        pair_coeff 8     20     6.577627494299018163E-02 2.728393499060382865E+00
        pair_coeff 9     20     6.577627494299018163E-02 2.728393499060382865E+00
        pair_coeff 10     20     6.577627494299018163E-02 2.728393499060382865E+00
        pair_coeff 11     20     6.577627494299018163E-02 2.728393499060382865E+00
        pair_coeff 12      20     4.331183156556572822E-02 2.915407359639444529E+00
        pair_coeff 13    20     6.877894405717501110E-03 3.969663348839890027E+00
        pair_coeff 14    20     2.533130481764387168E-02 3.451458661424102736E+00
        pair_coeff 15    20     5.268995854924014149E-02 3.108162818448523712E+00
        pair_coeff 16    20     7.657659860592054557E-02 2.982505691119483604E+00
        pair_coeff 17    20     9.243934043658488808E-02 2.967359751198966222E+00
        pair_coeff 18   20     5.693013587912872792E-02 3.063691980262590153E+00
        pair_coeff 19    20     5.830227959007599353E-02 2.979827888172235539E+00
        pair_coeff 20     20     2.829367882355780447E-02 2.373408142809749322E+00
        pair_coeff 1      21      0.000000000000000000E+00 0.000000000000000000E+00
        pair_coeff 2     21      0.000000000000000000E+00 0.000000000000000000E+00
        pair_coeff 3     21      0.000000000000000000E+00 0.000000000000000000E+00
        pair_coeff 4     21      0.000000000000000000E+00 0.000000000000000000E+00
        pair_coeff 5     21      0.000000000000000000E+00 0.000000000000000000E+00
        pair_coeff 6      21      0.000000000000000000E+00 0.000000000000000000E+00
        pair_coeff 7     21      0.000000000000000000E+00 0.000000000000000000E+00
        pair_coeff 8     21      0.000000000000000000E+00 0.000000000000000000E+00
        pair_coeff 9     21      0.000000000000000000E+00 0.000000000000000000E+00
        pair_coeff 10     21      0.000000000000000000E+00 0.000000000000000000E+00
        pair_coeff 11     21      0.000000000000000000E+00 0.000000000000000000E+00
        pair_coeff 12      21      0.000000000000000000E+00 0.000000000000000000E+00
        pair_coeff 13    21      0.000000000000000000E+00 0.000000000000000000E+00
        pair_coeff 14    21      0.000000000000000000E+00 0.000000000000000000E+00
        pair_coeff 15    21      0.000000000000000000E+00 0.000000000000000000E+00
        pair_coeff 16    21      0.000000000000000000E+00 0.000000000000000000E+00
        pair_coeff 17    21      0.000000000000000000E+00 0.000000000000000000E+00
        pair_coeff 18   21      0.000000000000000000E+00 0.000000000000000000E+00
        pair_coeff 19    21      0.000000000000000000E+00 0.000000000000000000E+00
        pair_coeff 20     21      0.000000000000000000E+00 0.000000000000000000E+00
        pair_coeff 21      21      0.000000000000000000E+00 0.000000000000000000E+00
        pair_coeff 1      22    0.000000000000000000E+00 0.000000000000000000E+00
        pair_coeff 2     22    0.000000000000000000E+00 0.000000000000000000E+00
        pair_coeff 3     22    0.000000000000000000E+00 0.000000000000000000E+00
        pair_coeff 4     22    0.000000000000000000E+00 0.000000000000000000E+00
        pair_coeff 5     22    0.000000000000000000E+00 0.000000000000000000E+00
        pair_coeff 6      22    0.000000000000000000E+00 0.000000000000000000E+00
        pair_coeff 7     22    0.000000000000000000E+00 0.000000000000000000E+00
        pair_coeff 8     22    0.000000000000000000E+00 0.000000000000000000E+00
        pair_coeff 9     22    0.000000000000000000E+00 0.000000000000000000E+00
        pair_coeff 10     22    0.000000000000000000E+00 0.000000000000000000E+00
        pair_coeff 11     22    0.000000000000000000E+00 0.000000000000000000E+00
        pair_coeff 12      22    0.000000000000000000E+00 0.000000000000000000E+00
        pair_coeff 13    22    0.000000000000000000E+00 0.000000000000000000E+00
        pair_coeff 14    22    0.000000000000000000E+00 0.000000000000000000E+00
        pair_coeff 15    22    0.000000000000000000E+00 0.000000000000000000E+00
        pair_coeff 16    22    0.000000000000000000E+00 0.000000000000000000E+00
        pair_coeff 17    22    0.000000000000000000E+00 0.000000000000000000E+00
        pair_coeff 18   22    0.000000000000000000E+00 0.000000000000000000E+00
        pair_coeff 19    22    0.000000000000000000E+00 0.000000000000000000E+00
        pair_coeff 20     22    0.000000000000000000E+00 0.000000000000000000E+00
        pair_coeff 21      22    0.000000000000000000E+00 0.000000000000000000E+00
        pair_coeff 22    22    0.000000000000000000E+00 0.000000000000000000E+00
        pair_coeff 1      23      3.731714874568097806E-01 3.021498329079459921E+00
        pair_coeff 2     23      4.333660288663451210E-01 2.947120929208018492E+00
        pair_coeff 3     23      3.392468067789179420E-01 3.069878160802191225E+00
        pair_coeff 4     23      3.392468067789179420E-01 3.069878160802191225E+00
        pair_coeff 5     23      2.660524812168876263E-01 3.235891839220214727E+00
        pair_coeff 6      23      2.639217367579247409E-01 3.220946106087509531E+00
        pair_coeff 7     23      2.639217367579247409E-01 3.220946106087509531E+00
        pair_coeff 8     23      2.639217367579247409E-01 3.220946106087509531E+00
        pair_coeff 9     23      2.639217367579247409E-01 3.220946106087509531E+00
        pair_coeff 10     23      2.639217367579247409E-01 3.220946106087509531E+00
        pair_coeff 11     23      2.639217367579247409E-01 3.220946106087509531E+00
        pair_coeff 12      23      1.737850588051431666E-01 3.441721286142719993E+00
        pair_coeff 13    23      2.759696924716207450E-02 4.686300458613273712E+00
        pair_coeff 14    23      1.016397168676915763E-01 4.074545090238809841E+00
        pair_coeff 15    23      2.114139996840987690E-01 3.669274586167817986E+00
        pair_coeff 16    23      3.072571214561132247E-01 3.520932774360979955E+00
        pair_coeff 17    23      3.709050306349177539E-01 3.503052561617904459E+00
        pair_coeff 18   23      2.284273523866607036E-01 3.616775497184223198E+00
        pair_coeff 19    23      2.339329629063890137E-01 3.517771551839822930E+00
        pair_coeff 20     23      1.135259918695059600E-01 2.801875799210098883E+00
        pair_coeff 21      23      0.000000000000000000E+00 0.000000000000000000E+00
        pair_coeff 22    23      0.000000000000000000E+00 0.000000000000000000E+00
        pair_coeff 23      23      4.555134350088204109E-01 3.307694050845144673E+00
        pair_coeff 1      24   2.223093289799977224E-01 2.528643669394098126E+00
        pair_coeff 2     24   8.188055467646591923E-02 2.986646248124879222E+00
        pair_coeff 3     24   2.047347528503646874E-01 2.563590501331129090E+00
        pair_coeff 4     24   2.047347528503646874E-01 2.563590501331129090E+00
        pair_coeff 5     24   1.790997547608397245E-01 2.653461953861128819E+00
        pair_coeff 6      24   5.583840364210079787E-01 2.182297559899140094E+00
        pair_coeff 7     24   5.583840364210079787E-01 2.182297559899140094E+00
        pair_coeff 8     24   5.583840364210079787E-01 2.182297559899140094E+00
        pair_coeff 9     24   1.469768559452463708E-01 2.726013321860754957E+00
        pair_coeff 10     24   5.583840364210079787E-01 2.182297559899140094E+00
        pair_coeff 11     24   5.583840364210079787E-01 2.182297559899140094E+00
        pair_coeff 12      24   3.676802214070164498E-01 2.331880049283297840E+00
        pair_coeff 13    24   5.838741162631456982E-02 3.175123618634094314E+00
        pair_coeff 14    24   2.150410044373349261E-01 2.760639115110234521E+00
        pair_coeff 15    24   4.472924585510560935E-01 2.486054939218036886E+00
        pair_coeff 16    24   6.500695009260647472E-01 2.385548453460561547E+00
        pair_coeff 17    24   7.847305442853571567E-01 2.373434017715752464E+00
        pair_coeff 18   24   4.832879194471943474E-01 2.450485069368524726E+00
        pair_coeff 19    24   4.949362401301840020E-01 2.383406620605556636E+00
        pair_coeff 20     24   2.401890134458197767E-01 1.898363561004745348E+00
        pair_coeff 21      24   0.000000000000000000E+00 0.000000000000000000E+00
        pair_coeff 22    24   0.000000000000000000E+00 0.000000000000000000E+00
        pair_coeff 23      24   9.637380899683938296E-01 2.241072162744267793E+00
        pair_coeff 24   24   2.038998270244088307E+00 1.518400541713947227E+00
        pair_coeff 1      25   1.222674138853568487E-01 2.793586526663335956E+00
        pair_coeff 2     25   4.503330433195999044E-02 3.299577089353393333E+00
        pair_coeff 3     25   1.126016118096603430E-01 2.832194971194489597E+00
        pair_coeff 4     25   1.126016118096603430E-01 2.832194971194489597E+00
        pair_coeff 5     25   9.850267617010251275E-02 2.931482855034457380E+00
        pair_coeff 6      25   5.583840364210079787E-01 2.182297559899140094E+00
        pair_coeff 7     25   5.583840364210079787E-01 2.182297559899140094E+00
        pair_coeff 8     25   5.583840364210079787E-01 2.182297559899140094E+00
        pair_coeff 9     25   8.083547442600935717E-02 3.011635913604119530E+00
        pair_coeff 10     25   5.583840364210079787E-01 2.182297559899140094E+00
        pair_coeff 11     25   5.583840364210079787E-01 2.182297559899140094E+00
        pair_coeff 12      25   3.676802214070164498E-01 2.331880049283297840E+00
        pair_coeff 13    25   5.838741162631456982E-02 3.175123618634094314E+00
        pair_coeff 14    25   2.150410044373349261E-01 2.760639115110234521E+00
        pair_coeff 15    25   4.472924585510560935E-01 2.486054939218036886E+00
        pair_coeff 16    25   6.500695009260647472E-01 2.385548453460561547E+00
        pair_coeff 17    25   7.847305442853571567E-01 2.373434017715752464E+00
        pair_coeff 18   25   4.832879194471943474E-01 2.450485069368524726E+00
        pair_coeff 19    25   4.949362401301840020E-01 2.383406620605556636E+00
        pair_coeff 20     25   2.401890134458197767E-01 1.898363561004745348E+00
        pair_coeff 21      25   0.000000000000000000E+00 0.000000000000000000E+00
        pair_coeff 22    25   0.000000000000000000E+00 0.000000000000000000E+00
        pair_coeff 23      25   9.637380899683938296E-01 2.241072162744267793E+00
        pair_coeff 24   25   2.038998270244088307E+00 1.518400541713947227E+00
        pair_coeff 25   25   2.038998270244088307E+00 1.518400541713947227E+00
        pair_coeff 1      26     0.000000000000000000E+00 0.000000000000000000E+00
        pair_coeff 2     26     0.000000000000000000E+00 0.000000000000000000E+00
        pair_coeff 3     26     0.000000000000000000E+00 0.000000000000000000E+00
        pair_coeff 4     26     0.000000000000000000E+00 0.000000000000000000E+00
        pair_coeff 5     26     0.000000000000000000E+00 0.000000000000000000E+00
        pair_coeff 6      26     0.000000000000000000E+00 0.000000000000000000E+00
        pair_coeff 7     26     0.000000000000000000E+00 0.000000000000000000E+00
        pair_coeff 8     26     0.000000000000000000E+00 0.000000000000000000E+00
        pair_coeff 9     26     0.000000000000000000E+00 0.000000000000000000E+00
        pair_coeff 10     26     0.000000000000000000E+00 0.000000000000000000E+00
        pair_coeff 11     26     0.000000000000000000E+00 0.000000000000000000E+00
        pair_coeff 12      26     0.000000000000000000E+00 0.000000000000000000E+00
        pair_coeff 13    26     0.000000000000000000E+00 0.000000000000000000E+00
        pair_coeff 14    26     0.000000000000000000E+00 0.000000000000000000E+00
        pair_coeff 15    26     0.000000000000000000E+00 0.000000000000000000E+00
        pair_coeff 16    26     0.000000000000000000E+00 0.000000000000000000E+00
        pair_coeff 17    26     0.000000000000000000E+00 0.000000000000000000E+00
        pair_coeff 18   26     0.000000000000000000E+00 0.000000000000000000E+00
        pair_coeff 19    26     0.000000000000000000E+00 0.000000000000000000E+00
        pair_coeff 20     26     0.000000000000000000E+00 0.000000000000000000E+00
        pair_coeff 21      26     0.000000000000000000E+00 0.000000000000000000E+00
        pair_coeff 22    26     0.000000000000000000E+00 0.000000000000000000E+00
        pair_coeff 23      26     0.000000000000000000E+00 0.000000000000000000E+00
        pair_coeff 24   26     0.000000000000000000E+00 0.000000000000000000E+00
        pair_coeff 25   26     0.000000000000000000E+00 0.000000000000000000E+00
        pair_coeff 26     26     0.000000000000000000E+00 0.000000000000000000E+00
        pair_coeff 1      27   5.148167869545027253E-01 2.198391984374735042E+00
        pair_coeff 2     27   1.896163524310913173E-01 2.596577466216851260E+00
        pair_coeff 3     27   4.741181493550025716E-01 2.228774610499382636E+00
        pair_coeff 4     27   4.741181493550025716E-01 2.228774610499382636E+00
        pair_coeff 5     27   4.147534460805777923E-01 2.306908466707524141E+00
        pair_coeff 6      27   4.114317946416216065E-01 2.296253463382908144E+00
        pair_coeff 7     27   4.114317946416216065E-01 2.296253463382908144E+00
        pair_coeff 8     27   4.114317946416216065E-01 2.296253463382908144E+00
        pair_coeff 9     27   3.403642711782671748E-01 2.369984315549452436E+00
        pair_coeff 10     27   4.114317946416216065E-01 2.296253463382908144E+00
        pair_coeff 11     27   4.114317946416216065E-01 2.296253463382908144E+00
        pair_coeff 12      27   2.709162932331031781E-01 2.453646898458591963E+00
        pair_coeff 13    27   4.302135444964862165E-02 3.340923226938115054E+00
        pair_coeff 14    27   1.584477717956855047E-01 2.904795040652100369E+00
        pair_coeff 15    27   3.295766478763905716E-01 2.615872541507785698E+00
        pair_coeff 16    27   4.789880153488779158E-01 2.510117776321816319E+00
        pair_coeff 17    27   5.782097536577677221E-01 2.497370745143705939E+00
        pair_coeff 18   27   3.560990341007065352E-01 2.578445272956105150E+00
        pair_coeff 19    27   3.646818179386565606E-01 2.507864100562072096E+00
        pair_coeff 20     27   1.769774750163259913E-01 1.997492909224773072E+00
        pair_coeff 21      27   0.000000000000000000E+00 0.000000000000000000E+00
        pair_coeff 22    27   0.000000000000000000E+00 0.000000000000000000E+00
        pair_coeff 23      27   7.101071414248384395E-01 2.358097177009347067E+00
        pair_coeff 24   27   1.502386642309327724E+00 1.597688860942628741E+00
        pair_coeff 25   27   1.502386642309327724E+00 1.597688860942628741E+00
        pair_coeff 26     27   0.000000000000000000E+00 0.000000000000000000E+00
        pair_coeff 27   27   1.106997321149905122E+00 1.681117482676084629E+00
        pair_coeff 1      28   1.337556733810085774E-01 2.357481108494590138E+00
        pair_coeff 2     28   4.926463850082780926E-02 2.784481733402069281E+00
        pair_coeff 3     28   1.231816714918823885E-01 2.390062407746226469E+00
        pair_coeff 4     28   1.231816714918823885E-01 2.390062407746226469E+00
        pair_coeff 5     28   1.077579983274792180E-01 2.473850508891853206E+00
        pair_coeff 6      28   1.068949928152020112E-01 2.462424444192170547E+00
        pair_coeff 7     28   1.068949928152020112E-01 2.462424444192170547E+00
        pair_coeff 8     28   1.068949928152020112E-01 2.462424444192170547E+00
        pair_coeff 9     28   8.843078438758973647E-02 2.541490912925349122E+00
        pair_coeff 10     28   1.068949928152020112E-01 2.462424444192170547E+00
        pair_coeff 11     28   1.068949928152020112E-01 2.462424444192170547E+00
        pair_coeff 12      28   7.038735361689542336E-02 2.631207833337182223E+00
        pair_coeff 13    28   1.117747202498341370E-02 3.582692917558796708E+00
        pair_coeff 14    28   4.116666151782900213E-02 3.115003821456256539E+00
        pair_coeff 15    28   8.562802842568927042E-02 2.805173118654866293E+00
        pair_coeff 16    28   1.244469220077783211E-01 2.691765290191502125E+00
        pair_coeff 17    28   1.502259384614757498E-01 2.678095805674920893E+00
        pair_coeff 18   28   9.251886749504166507E-02 2.765037383453741171E+00
        pair_coeff 19    28   9.474877930215237776E-02 2.689348524634663118E+00
        pair_coeff 20     28   4.598090416614816073E-02 2.142043744391038285E+00
        pair_coeff 21      28   0.000000000000000000E+00 0.000000000000000000E+00
        pair_coeff 22    28   0.000000000000000000E+00 0.000000000000000000E+00
        pair_coeff 23      28   1.844944867392919463E-01 2.528743548150760745E+00
        pair_coeff 24   28   3.903383535907812840E-01 1.713307423651182493E+00
        pair_coeff 25   28   3.903383535907812840E-01 1.713307423651182493E+00
        pair_coeff 26     28   0.000000000000000000E+00 0.000000000000000000E+00
        pair_coeff 27   28   2.876113908353647441E-01 1.802773452022052636E+00
        pair_coeff 28   28   7.472494337414144205E-02 1.933233193281657103E+00
        pair_coeff 1      29   1.703146428752259911E-01 2.843803441534021204E+00
        pair_coeff 2     29   6.272996950749848422E-02 3.358889582531555007E+00
        pair_coeff 3     29   1.568504861035088516E-01 2.883105903219756350E+00
        pair_coeff 4     29   1.568504861035088516E-01 2.883105903219756350E+00
        pair_coeff 5     29   1.372111144012202466E-01 2.984178564858046556E+00
        pair_coeff 6      29   1.361122266164445094E-01 2.970395429120896935E+00
        pair_coeff 7     29   1.361122266164445094E-01 2.970395429120896935E+00
        pair_coeff 8     29   1.361122266164445094E-01 2.970395429120896935E+00
        pair_coeff 9     29   1.126012608021971506E-01 3.065772437692955599E+00
        pair_coeff 10     29   1.361122266164445094E-01 2.970395429120896935E+00
        pair_coeff 11     29   1.361122266164445094E-01 2.970395429120896935E+00
        pair_coeff 12      29   8.962608232733035307E-02 3.173996968575379718E+00
        pair_coeff 13    29   1.423257128510838597E-02 4.321762924080988277E+00
        pair_coeff 14    29   5.241860085293292143E-02 3.757594729361648955E+00
        pair_coeff 15    29   1.090324373747397629E-01 3.383849372190097071E+00
        pair_coeff 16    29   1.584615631091823018E-01 3.247046760402909182E+00
        pair_coeff 17    29   1.912866677944946026E-01 3.230557412101377146E+00
        pair_coeff 18   29   1.178067253398141917E-01 3.335434077797200025E+00
        pair_coeff 19    29   1.206461311270324160E-01 3.244131442785662678E+00
        pair_coeff 20     29   5.854870357409030363E-02 2.583923727009426852E+00
        pair_coeff 21      29   0.000000000000000000E+00 0.000000000000000000E+00
        pair_coeff 22    29   0.000000000000000000E+00 0.000000000000000000E+00
        pair_coeff 23      29   2.349217182881164212E-01 3.050395432258705242E+00
        pair_coeff 24   29   4.970281679412999476E-01 2.066743835286263042E+00
        pair_coeff 25   29   4.970281679412999476E-01 2.066743835286263042E+00
        pair_coeff 26     29   0.000000000000000000E+00 0.000000000000000000E+00
        pair_coeff 27   29   3.662232044351344529E-01 2.174665717868782711E+00
        pair_coeff 28   29   9.514925029300028148E-02 2.332037863859216742E+00
        pair_coeff 29   29   1.211560614504652439E-01 2.813111536348800179E+00
        pair_coeff 1      30     2.698242160009388657E-01 3.067797545829641592E+00
        pair_coeff 2     30     3.133482940435941000E-01 2.992280441419951309E+00
        pair_coeff 3     30     2.452947418190353224E-01 3.116918714488987607E+00
        pair_coeff 4     30     2.452947418190353224E-01 3.116918714488987607E+00
        pair_coeff 5     30     1.923710802470132430E-01 3.285476264338809127E+00
        pair_coeff 6      30     1.908304307803131428E-01 3.270301513790756509E+00
        pair_coeff 7     30     1.908304307803131428E-01 3.270301513790756509E+00
        pair_coeff 8     30     1.908304307803131428E-01 3.270301513790756509E+00
        pair_coeff 9     30     1.908304307803131428E-01 3.270301513790756509E+00
        pair_coeff 10     30     1.908304307803131428E-01 3.270301513790756509E+00
        pair_coeff 11     30     1.908304307803131428E-01 3.270301513790756509E+00
        pair_coeff 12      30     1.256564845410435005E-01 3.494459690227617266E+00
        pair_coeff 13    30     1.995417881967565324E-02 4.758109878000214898E+00
        pair_coeff 14    30     7.349129780864194217E-02 4.136980420576664486E+00
        pair_coeff 15    30     1.528643495920544437E-01 3.725499849556486165E+00
        pair_coeff 16    30     2.221643793651205678E-01 3.574884956996347896E+00
        pair_coeff 17    30     2.681854387748578428E-01 3.556730761031980492E+00
        pair_coeff 18   30     1.651659715241092508E-01 3.672196303169541487E+00
        pair_coeff 19    30     1.691468411565035523E-01 3.571675294227750541E+00
        pair_coeff 20     30     8.208575087201354370E-02 2.844809681941795620E+00
        pair_coeff 21      30     0.000000000000000000E+00 0.000000000000000000E+00
        pair_coeff 22    30     0.000000000000000000E+00 0.000000000000000000E+00
        pair_coeff 23      30     3.293621287006147091E-01 3.358378720212484847E+00
        pair_coeff 24   30     6.968374682861073754E-01 2.275412703269175108E+00
        pair_coeff 25   30     6.968374682861073754E-01 2.275412703269175108E+00
        pair_coeff 26     30     0.000000000000000000E+00 0.000000000000000000E+00
        pair_coeff 27   30     5.134478628509925313E-01 2.394230922729341682E+00
        pair_coeff 28   30     1.334000102210023686E-01 2.567492153276457856E+00
        pair_coeff 29   30     1.698617675500217472E-01 3.097137446951440776E+00
        pair_coeff 30     30     2.381475572067369983E-01 3.409840044152281813E+00
        pair_coeff 1      31      1.825200170718821457E-01 2.848641691863192271E+00
        pair_coeff 2     31      2.119614644894694810E-01 2.778519342243783719E+00
        pair_coeff 3     31      1.057395499456308119E-01 3.119966996841143647E+00
        pair_coeff 4     31      1.659272882471655997E-01 2.894253765967063963E+00
        pair_coeff 5     31      9.249981842420902656E-02 3.229343266454477224E+00
        pair_coeff 6      31      7.192433081344887236E-02 3.347591749745056244E+00
        pair_coeff 7     31      6.211065545356941192E-02 3.430447483334676306E+00
        pair_coeff 8     31      4.555051328896060625E-02 3.612403446600987778E+00
        pair_coeff 9     31      7.590927472598106573E-02 3.317640470558243848E+00
        pair_coeff 10     31      6.506004412035899798E-02 3.404024952464428821E+00
        pair_coeff 11     31      7.043799131579189798E-02 3.359262692221449242E+00
        pair_coeff 12      31      8.499913033581890653E-02 3.244824150032262100E+00
        pair_coeff 13    31      1.349781392048931411E-02 4.418202300006069727E+00
        pair_coeff 14    31      4.971248737222838665E-02 3.841444791719262675E+00
        pair_coeff 15    31      1.034036311148842646E-01 3.459359372949309286E+00
        pair_coeff 16    31      1.502809752047785663E-01 3.319504035055336644E+00
        pair_coeff 17    31      1.814114818495274339E-01 3.302646729860391872E+00
        pair_coeff 18   31      1.117249459261637351E-01 3.409863699817805127E+00
        pair_coeff 19    31      1.144177672156473091E-01 3.316523662640645131E+00
        pair_coeff 20     31      5.552612316481649046E-02 2.641583528356301613E+00
        pair_coeff 21      31      0.000000000000000000E+00 0.000000000000000000E+00
        pair_coeff 22    31      0.000000000000000000E+00 0.000000000000000000E+00
        pair_coeff 23      31      2.227938701879095817E-01 3.118464467275081642E+00
        pair_coeff 24   31      1.066111026131294215E-01 2.706851401515291577E+00
        pair_coeff 25   31      5.863480344158913254E-02 2.990466271099721407E+00
        pair_coeff 26     31      0.000000000000000000E+00 0.000000000000000000E+00
        pair_coeff 27   31      2.468865591596759723E-01 2.353325024008075417E+00
        pair_coeff 28   31      6.414413594489304371E-02 2.523626052896363436E+00
        pair_coeff 29   31      8.167642784672754508E-02 3.044222254215389167E+00
        pair_coeff 30     31      1.610926433928725754E-01 3.166249521765611696E+00
        pair_coeff 31      31      1.089695819670959825E-01 2.940060502624928240E+00
        pair_coeff 1      32     3.028875918701723902E-01 3.094659625059138719E+00
        pair_coeff 2     32     3.517449679133345941E-01 3.018481281955716966E+00
        pair_coeff 3     32     2.468521531134249269E-01 3.201992541656678348E+00
        pair_coeff 4     32     2.753523562456112184E-01 3.144210905779225573E+00
        pair_coeff 5     32     2.159436024870309834E-01 3.314244369926244271E+00
        pair_coeff 6      32     1.679095090878598429E-01 3.435601666955987898E+00
        pair_coeff 7     32     1.449991894034274031E-01 3.520635720603371155E+00
        pair_coeff 8     32     1.063390404686152813E-01 3.707375400182857383E+00
        pair_coeff 9     32     1.772124802594848836E-01 3.404862953159864425E+00
        pair_coeff 10     32     1.518846257717465786E-01 3.493518527740791413E+00
        pair_coeff 11     32     1.644396049182014208E-01 3.447579444541888805E+00
        pair_coeff 12      32     1.410540186851716171E-01 3.525057684932574986E+00
        pair_coeff 13    32     2.239929855079176788E-02 4.799772576602748586E+00
        pair_coeff 14    32     8.249668078937649751E-02 4.173204419770964790E+00
        pair_coeff 15    32     1.715958464253498628E-01 3.758120865328633986E+00
        pair_coeff 16    32     2.493876749186909880E-01 3.606187166974876845E+00
        pair_coeff 17    32     3.010480042491057717E-01 3.587874010243685685E+00
        pair_coeff 18   32     1.854048688263800759E-01 3.704350585376364968E+00
        pair_coeff 19    32     1.898735411878733903E-01 3.602949399934630925E+00
        pair_coeff 20     32     9.214426998795607893E-02 2.869719247168172060E+00
        pair_coeff 21      32     0.000000000000000000E+00 0.000000000000000000E+00
        pair_coeff 22    32     0.000000000000000000E+00 0.000000000000000000E+00
        pair_coeff 23      32     3.697210854307304562E-01 3.387785170252723521E+00
        pair_coeff 24   32     2.488868189752940496E-01 2.778015923822349631E+00
        pair_coeff 25   32     1.368847085539993957E-01 3.069087174906648396E+00
        pair_coeff 26     32     0.000000000000000000E+00 0.000000000000000000E+00
        pair_coeff 27   32     5.763640826414281326E-01 2.415195155140145822E+00
        pair_coeff 28   32     1.497464106452001675E-01 2.589973486093279487E+00
        pair_coeff 29   32     1.906760723205734864E-01 3.124256430600719447E+00
        pair_coeff 30     32     2.673293790349109966E-01 3.439697096991523484E+00
        pair_coeff 31      32     1.808324084043584357E-01 3.193973660742658982E+00
        pair_coeff 32     32     3.000870457518571288E-01 3.469815582505817453E+00
        pair_coeff 1      33     4.619134934213758870E-01 3.174341374980300667E+00
        pair_coeff 2     33     5.364225913614864005E-01 3.096201580725539859E+00
        pair_coeff 3     33     3.764576148503470665E-01 3.284437915256962270E+00
        pair_coeff 4     33     4.199213576557962457E-01 3.225168509344078061E+00
        pair_coeff 5     33     3.293210632726623621E-01 3.399580020064839836E+00
        pair_coeff 6      33     2.560674983169540231E-01 3.524062042578035125E+00
        pair_coeff 7     33     2.211285107688185092E-01 3.611285565510714335E+00
        pair_coeff 8     33     1.621705180019040737E-01 3.802833445749207453E+00
        pair_coeff 9     33     2.702548339108319375E-01 3.492531863870627973E+00
        pair_coeff 10     33     2.316290266433154443E-01 3.583470155189018680E+00
        pair_coeff 11     33     2.507757808618153450E-01 3.536348225738003670E+00
        pair_coeff 12      33     2.151119962679723108E-01 3.615821387226038297E+00
        pair_coeff 13    33     3.415966358971698341E-02 4.923357824889950329E+00
        pair_coeff 14    33     1.258101389489161837E-01 4.280656699257024300E+00
        pair_coeff 15    33     2.616892834385430300E-01 3.854885512574417916E+00
        pair_coeff 16    33     3.803243686103310317E-01 3.699039803071263677E+00
        pair_coeff 17    33     4.591080620755257913E-01 3.680255116494558720E+00
        pair_coeff 18   33     2.827484946746637862E-01 3.799730747567426459E+00
        pair_coeff 19    33     2.895633663196458540E-01 3.695718669530379863E+00
        pair_coeff 20     33     1.405230283158743487E-01 2.943609199247290142E+00
        pair_coeff 21      33     0.000000000000000000E+00 0.000000000000000000E+00
        pair_coeff 22    33     0.000000000000000000E+00 0.000000000000000000E+00
        pair_coeff 23      33     5.638367590708479593E-01 3.475014359704387434E+00
        pair_coeff 24   33     3.795605468998184961E-01 2.849544685281790724E+00
        pair_coeff 25   33     2.087536618246373654E-01 3.148110481630561619E+00
        pair_coeff 26     33     0.000000000000000000E+00 0.000000000000000000E+00
        pair_coeff 27   33     8.789740948174059598E-01 2.477381954232469763E+00
        pair_coeff 28   33     2.283681785752544047E-01 2.656660503285802832E+00
        pair_coeff 29   33     2.907872525699738975E-01 3.204700243411942928E+00
        pair_coeff 30     33     4.076860547562866088E-01 3.528262922346804054E+00
        pair_coeff 31      33     2.757753428396018114E-01 3.276212563021035251E+00
        pair_coeff 32     33     4.576425689077261438E-01 3.559156903043612541E+00
        pair_coeff 33     33     6.979198997135206417E-01 3.650798597006346569E+00
        pair_coeff 1      34   2.726298193589453134E-01 3.152721713066568121E+00
        pair_coeff 2     34   3.166064561130476629E-01 3.075114109819085950E+00
        pair_coeff 3     34   2.478452903263138885E-01 3.203202676262477233E+00
        pair_coeff 4     34   2.478452903263138885E-01 3.203202676262477233E+00
        pair_coeff 5     34   1.943713341779741421E-01 3.376426312885838499E+00
        pair_coeff 6      34   1.928146652027906693E-01 3.360831487989961452E+00
        pair_coeff 7     34   1.928146652027906693E-01 3.360831487989961452E+00
        pair_coeff 8     34   1.928146652027906693E-01 3.360831487989961452E+00
        pair_coeff 9     34   1.928146652027906693E-01 3.360831487989961452E+00
        pair_coeff 10     34   1.928146652027906693E-01 3.360831487989961452E+00
        pair_coeff 11     34   1.928146652027906693E-01 3.360831487989961452E+00
        pair_coeff 12      34   1.269630472365963769E-01 3.591194913038851411E+00
        pair_coeff 13    34   2.016166023825427880E-02 4.889826040157090326E+00
        pair_coeff 14    34   7.425545246819055534E-02 4.251502194534839241E+00
        pair_coeff 15    34   1.544538167603142498E-01 3.828630831160853454E+00
        pair_coeff 16    34   2.244744208358758208E-01 3.673846548628572073E+00
        pair_coeff 17    34   2.709740023024271305E-01 3.655189799952984320E+00
        pair_coeff 18   34   1.668833496423683671E-01 3.773851711754483418E+00
        pair_coeff 19    34   1.709056119317078348E-01 3.670548034515104696E+00
        pair_coeff 20     34   8.293926973590307061E-02 2.923560997691061925E+00
        pair_coeff 21      34   0.000000000000000000E+00 0.000000000000000000E+00
        pair_coeff 22    34   0.000000000000000000E+00 0.000000000000000000E+00
        pair_coeff 23      34   3.327868009112045500E-01 3.451346887707100741E+00
        pair_coeff 24   34   7.040831098003642596E-01 2.338401712830169732E+00
        pair_coeff 25   34   7.040831098003642596E-01 2.338401712830169732E+00
        pair_coeff 26     34   0.000000000000000000E+00 0.000000000000000000E+00
        pair_coeff 27   34   5.187866388494037917E-01 2.460509112293086442E+00
        pair_coeff 28   34   1.347870892689141398E-01 2.638566639042558393E+00
        pair_coeff 29   34   1.716279720534513720E-01 3.182873814678249147E+00
        pair_coeff 30     34   2.406237900523386375E-01 3.504232787426495133E+00
        pair_coeff 31      34   1.627676674805978718E-01 3.253899081387234382E+00
        pair_coeff 32     34   2.701090413448035132E-01 3.534916356784718605E+00
        pair_coeff 33     34   4.119251307784054794E-01 3.625933901607006682E+00
        pair_coeff 34   34   2.431257705023985027E-01 3.601238553560273559E+00
        pair_coeff 1      35   1.774056427875315700E-01 3.022113465134438570E+00
        pair_coeff 2     35   1.088910246333028992E-01 3.278234300527326894E+00
        pair_coeff 3     35   1.633809098206280841E-01 3.063880240200058669E+00
        pair_coeff 4     35   1.633809098206280841E-01 3.063880240200058669E+00
        pair_coeff 5     35   1.429238586712428538E-01 3.171290283817308264E+00
        pair_coeff 6      35   1.111321413093139809E-01 3.287413047857584036E+00
        pair_coeff 7     35   9.596877802844315519E-02 3.368779307561466041E+00
        pair_coeff 8     35   7.038127462972523785E-02 3.547464300384358893E+00
        pair_coeff 9     35   1.172893810776735740E-01 3.258000194272241412E+00
        pair_coeff 10     35   1.005259546387323316E-01 3.342831766990879583E+00
        pair_coeff 11     35   1.088355597600791647E-01 3.298874185130554082E+00
        pair_coeff 12      35   9.335763782481623640E-02 3.373010538257620983E+00
        pair_coeff 13    35   1.482514019187304057E-02 4.592742851080654276E+00
        pair_coeff 14    35   5.460103383565441393E-02 3.993200606718578349E+00
        pair_coeff 15    35   1.135719707396375816E-01 3.596020949382504384E+00
        pair_coeff 16    35   1.650590635421556873E-01 3.450640643166755339E+00
        pair_coeff 17    35   1.992508317774452642E-01 3.433117392155260461E+00
        pair_coeff 18   35   1.227115735956721548E-01 3.544569955630175073E+00
        pair_coeff 19    35   1.256691972052001172E-01 3.447542531497872709E+00
        pair_coeff 20     35   6.098636157519143897E-02 2.745938968293540228E+00
        pair_coeff 21      35   0.000000000000000000E+00 0.000000000000000000E+00
        pair_coeff 22    35   0.000000000000000000E+00 0.000000000000000000E+00
        pair_coeff 23      35   2.447026147257768958E-01 3.241659031413521852E+00
        pair_coeff 24   35   1.647275683589491391E-01 2.658191106078167110E+00
        pair_coeff 25   35   9.059814930521523091E-02 2.936707512061449421E+00
        pair_coeff 26     35   0.000000000000000000E+00 0.000000000000000000E+00
        pair_coeff 27   35   3.814707995138282293E-01 2.311019971405739337E+00
        pair_coeff 28   35   9.911076125937028081E-02 2.478259547281012942E+00
        pair_coeff 29   35   1.262003583272166274E-01 2.989497139204101650E+00
        pair_coeff 30     35   1.769339121317631824E-01 3.291331828740973631E+00
        pair_coeff 31      35   8.507700182510755105E-02 3.235098787405478848E+00
        pair_coeff 32     35   1.986148143410966516E-01 3.320151206497628849E+00
        pair_coeff 33     35   3.028940940468037857E-01 3.405638946730622507E+00
        pair_coeff 34   35   1.787736520386526418E-01 3.382443973685540506E+00
        pair_coeff 35   35   1.314546730163348442E-01 3.176942339410103067E+00
        pair_coeff 1      36    3.493138043396110115E-02 2.995467182793318806E+00
        pair_coeff 2     36    1.286586045970535865E-02 3.538023538529870837E+00
        pair_coeff 3     36    3.216989396118666994E-02 3.036865695947625898E+00
        pair_coeff 4     36    3.216989396118666994E-02 3.036865695947625898E+00
        pair_coeff 5     36    2.814187644704253116E-02 3.143328694266439349E+00
        pair_coeff 6      36    2.791649554839393046E-02 3.128810485949500286E+00
        pair_coeff 7     36    2.791649554839393046E-02 3.128810485949500286E+00
        pair_coeff 8     36    2.791649554839393046E-02 3.128810485949500286E+00
        pair_coeff 9     36    2.309441755578705083E-02 3.229274074606136136E+00
        pair_coeff 10     36    2.791649554839393046E-02 3.128810485949500286E+00
        pair_coeff 11     36    2.791649554839393046E-02 3.128810485949500286E+00
        pair_coeff 12      36    1.838222906573640236E-02 3.343270360670348218E+00
        pair_coeff 13    36    2.919087599988792053E-03 4.552248169414355949E+00
        pair_coeff 14    36    1.075100800082823098E-02 3.957992150107363383E+00
        pair_coeff 15    36    2.236245507304574984E-02 3.564314466278117433E+00
        pair_coeff 16    36    3.250032440946476475E-02 3.420215993034873669E+00
        pair_coeff 17    36    3.923272392714612089E-02 3.402847246312967755E+00
        pair_coeff 18   36    2.416205366169842800E-02 3.513317121179974301E+00
        pair_coeff 19    36    2.474441324091778208E-02 3.417145197732238238E+00
        pair_coeff 20     36    1.200828656852534135E-02 2.721727744630110912E+00
        pair_coeff 21      36    0.000000000000000000E+00 0.000000000000000000E+00
        pair_coeff 22    36    0.000000000000000000E+00 0.000000000000000000E+00
        pair_coeff 23      36    4.818223363057468761E-02 3.213076993445320717E+00
        pair_coeff 24   36    1.019400312718368312E-01 2.176965975714864943E+00
        pair_coeff 25   36    1.019400312718368312E-01 2.176965975714864943E+00
        pair_coeff 26     36    0.000000000000000000E+00 0.000000000000000000E+00
        pair_coeff 27   36    7.511205062526553344E-02 2.290643472851174423E+00
        pair_coeff 28   36    1.951502585967282086E-02 2.456408480346143008E+00
        pair_coeff 29   36    2.484899949270408595E-02 2.963138438331942570E+00
        pair_coeff 30     36    3.483849611111720229E-02 3.262311820657642247E+00
        pair_coeff 31      36    1.675176206482257082E-02 3.206574591777111127E+00
        pair_coeff 32     36    3.910749134331937410E-02 3.290877095024250742E+00
        pair_coeff 33     36    5.964020458481446990E-02 3.375611081141380421E+00
        pair_coeff 34   36    3.520074306999246977E-02 3.352620620536940876E+00
        pair_coeff 35   36    2.588358025598428910E-02 3.148930915109191542E+00
        pair_coeff 36    36    5.096507499468877836E-03 3.121166470390387637E+00
        pair_coeff 1      37    2.226461306623754022E-01 3.362204455973978323E+00
        pair_coeff 2     37    2.585601331580250628E-01 3.279440211868734245E+00
        pair_coeff 3     37    1.814556892113898812E-01 3.478816702288478169E+00
        pair_coeff 4     37    2.024055733294321535E-01 3.416039629150127599E+00
        pair_coeff 5     37    1.587354808368636461E-01 3.600773118478173718E+00
        pair_coeff 6      37    1.234266556414602978E-01 3.732622205057627429E+00
        pair_coeff 7     37    1.065857741828254851E-01 3.825007768809989717E+00
        pair_coeff 8     37    7.816753321752194228E-02 4.027891788010422580E+00
        pair_coeff 9     37    1.302650689360985159E-01 3.699226015163477044E+00
        pair_coeff 10     37    1.116471098283786517E-01 3.795546193799352430E+00
        pair_coeff 11     37    1.208760039875793058E-01 3.745635506050692953E+00
        pair_coeff 12      37    1.036857643481583074E-01 3.829812028396864854E+00
        pair_coeff 13    37    1.646524085418059336E-02 5.214730762000061581E+00
        pair_coeff 14    37    6.064152927768903800E-02 4.533993458352017392E+00
        pair_coeff 15    37    1.261364026450952358E-01 4.083024387295987268E+00
        pair_coeff 16    37    1.833194965587523484E-01 3.917955455811204413E+00
        pair_coeff 17    37    2.212938895114058557E-01 3.898059058590013226E+00
        pair_coeff 18   37    1.362871169309986807E-01 4.024605466717271263E+00
        pair_coeff 19    37    1.395719415233208360E-01 3.914437771771909880E+00
        pair_coeff 20     37    6.773326384502838249E-02 3.117817146058102118E+00
        pair_coeff 21      37    0.000000000000000000E+00 0.000000000000000000E+00
        pair_coeff 22    37    0.000000000000000000E+00 0.000000000000000000E+00
        pair_coeff 23      37    2.717739891131936147E-01 3.680671794426697563E+00
        pair_coeff 24   37    1.829513281662208113E-01 3.018185729444698318E+00
        pair_coeff 25   37    1.006209944693221142E-01 3.334421172424263169E+00
        pair_coeff 26     37    0.000000000000000000E+00 0.000000000000000000E+00
        pair_coeff 27   37    4.236727957739777617E-01 2.623997756297280493E+00
        pair_coeff 28   37    1.100753540442943462E-01 2.813886323808834078E+00
        pair_coeff 29   37    1.401618648355585917E-01 3.394360015399224828E+00
        pair_coeff 30     37    1.965080559655630332E-01 3.737071700247052153E+00
        pair_coeff 31      37    1.329259999757477217E-01 3.470104559304247438E+00
        pair_coeff 32     37    2.205875096632962662E-01 3.769794040818323477E+00
        pair_coeff 33     37    3.364031737469428962E-01 3.866859250698725603E+00
        pair_coeff 34   37    1.985513257278677390E-01 3.840523019086392154E+00
        pair_coeff 35   37    1.459974627294264860E-01 3.607190623033505794E+00
        pair_coeff 36    37    2.874707271347901050E-02 3.575385655778474892E+00
        pair_coeff 37    37    1.621491167589119986E-01 4.095706752209074430E+00
        pair_coeff 1      38   1.763627633860331279E-01 3.063392634298282680E+00
        pair_coeff 2     38   2.048110131065301875E-01 2.987983961478049899E+00
        pair_coeff 3     38   1.603297848963937400E-01 3.112443272096635738E+00
        pair_coeff 4     38   1.603297848963937400E-01 3.112443272096635738E+00
        pair_coeff 5     38   1.257377703556508686E-01 3.280758797795926274E+00
        pair_coeff 6      38   1.247307695705341529E-01 3.265605835984801697E+00
        pair_coeff 7     38   1.247307695705341529E-01 3.265605835984801697E+00
        pair_coeff 8     38   1.247307695705341529E-01 3.265605835984801697E+00
        pair_coeff 9     38   1.247307695705341529E-01 3.265605835984801697E+00
        pair_coeff 10     38   1.247307695705341529E-01 3.265605835984801697E+00
        pair_coeff 11     38   1.247307695705341529E-01 3.265605835984801697E+00
        pair_coeff 12      38   8.213171219204309925E-02 3.489442153850004225E+00
        pair_coeff 13    38   1.304246953774084068E-02 4.751277923558641980E+00
        pair_coeff 14    38   4.803545270493036340E-02 4.131040317787165073E+00
        pair_coeff 15    38   9.991534309570471173E-02 3.720150573079720857E+00
        pair_coeff 16    38   1.452112951590650569E-01 3.569751941621275737E+00
        pair_coeff 17    38   1.752916242405209712E-01 3.551623812444546502E+00
        pair_coeff 18   38   1.079559410458155871E-01 3.666923562840495698E+00
        pair_coeff 19    38   1.105579208808877417E-01 3.566546887462056503E+00
        pair_coeff 20     38   5.365296737619508483E-02 2.840724948583317921E+00
        pair_coeff 21      38   0.000000000000000000E+00 0.000000000000000000E+00
        pair_coeff 22    38   0.000000000000000000E+00 0.000000000000000000E+00
        pair_coeff 23      38   2.152779911056781903E-01 3.353556576335538608E+00
        pair_coeff 24   38   4.554675757398939928E-01 2.272145541239902311E+00
        pair_coeff 25   38   4.554675757398939928E-01 2.272145541239902311E+00
        pair_coeff 26     38   0.000000000000000000E+00 0.000000000000000000E+00
        pair_coeff 27   38   3.356002855827399101E-01 2.390793155000958237E+00
        pair_coeff 28   38   8.719304288914962731E-02 2.563805607595497360E+00
        pair_coeff 29   38   1.110252117573227587E-01 3.092690407585096501E+00
        pair_coeff 30     38   1.556582352210648112E-01 3.404944009291379192E+00
        pair_coeff 31      38   1.052935283978697484E-01 3.161703247501671754E+00
        pair_coeff 32     38   1.747320856505523434E-01 3.434758191740909350E+00
        pair_coeff 33     38   2.664721509299896041E-01 3.523196849439405476E+00
        pair_coeff 34   38   1.572767529134725395E-01 3.499201218301315031E+00
        pair_coeff 35   38   1.156477136957594076E-01 3.286605954458409862E+00
        pair_coeff 36    38   2.277117131083897586E-02 3.257627614890140855E+00
        pair_coeff 37    38   1.284417844007869070E-01 3.731705808274059954E+00
        pair_coeff 38   38   1.017414853056947954E-01 3.400055004425153182E+00
        pair_coeff 1      39  3.025968882784489944E-01 3.081336470273898787E+00
        pair_coeff 2     39  3.514073722894541785E-01 3.005486090817345968E+00
        pair_coeff 3     39  2.750880802531354141E-01 3.130674422401240609E+00
        pair_coeff 4     39  2.750880802531354141E-01 3.130674422401240609E+00
        pair_coeff 5     39  2.157363454631790467E-01 3.299975857040665872E+00
        pair_coeff 6      39  2.140085697228813477E-01 3.284734136688360451E+00
        pair_coeff 7     39  2.140085697228813477E-01 3.284734136688360451E+00
        pair_coeff 8     39  2.140085697228813477E-01 3.284734136688360451E+00
        pair_coeff 9     39  2.140085697228813477E-01 3.284734136688360451E+00
        pair_coeff 10     39  2.140085697228813477E-01 3.284734136688360451E+00
        pair_coeff 11     39  2.140085697228813477E-01 3.284734136688360451E+00
        pair_coeff 12      39  1.409186387258750672E-01 3.509881576780662371E+00
        pair_coeff 13    39  2.237780028966923282E-02 4.779108555120642698E+00
        pair_coeff 14    39  8.241750263201898241E-02 4.155237904815708205E+00
        pair_coeff 15    39  1.714311532183001030E-01 3.741941371601773980E+00
        pair_coeff 16    39  2.491483191485096838E-01 3.590661779490871286E+00
        pair_coeff 17    39  3.007590662454852626E-01 3.572427464716889212E+00
        pair_coeff 18   39  1.852269220806647965E-01 3.688402583913419353E+00
        pair_coeff 19    39  1.896913055272583803E-01 3.587437951712664219E+00
        pair_coeff 20     39  9.205583232672064076E-02 2.857364507599851500E+00
        pair_coeff 21      39  0.000000000000000000E+00 0.000000000000000000E+00
        pair_coeff 22    39  0.000000000000000000E+00 0.000000000000000000E+00
        pair_coeff 23      39  3.693662367992399664E-01 3.373200048891741964E+00
        pair_coeff 24   39  7.814748900761182560E-01 2.285454643849949008E+00
        pair_coeff 25   39  7.814748900761182560E-01 2.285454643849949008E+00
        pair_coeff 26     39  0.000000000000000000E+00 0.000000000000000000E+00
        pair_coeff 27   39  5.758109034638668744E-01 2.404797236536131866E+00
        pair_coeff 28   39  1.496026879553617739E-01 2.578823110340977554E+00
        pair_coeff 29   39  1.904930664115593308E-01 3.110805855398001363E+00
        pair_coeff 30     39  2.670728032862023649E-01 3.424888483964596109E+00
        pair_coeff 31      39  1.806588501866098206E-01 3.180222938331227489E+00
        pair_coeff 32     39  2.997990300510781636E-01 3.454877303120381882E+00
        pair_coeff 33     39  4.572033355350892392E-01 3.543833990649556398E+00
        pair_coeff 34   39  2.698497977488837352E-01 3.519697804995386647E+00
        pair_coeff 35   39  1.984241890350484927E-01 3.305857263449297090E+00
        pair_coeff 36    39  3.906995699558794138E-02 3.276709183128165837E+00
        pair_coeff 37    39  2.203757955387509737E-01 3.753564291637640160E+00
        pair_coeff 38   39  1.745857558702323398E-01 3.420002180612172538E+00
        pair_coeff 39  39  2.995112907802387481E-01 3.440003336141669088E+00
        pair_coeff 1      40   7.770287548036601544E-02 2.465397265096893165E+00
        pair_coeff 2     40   9.023676167734992482E-02 2.404708885274443819E+00
        pair_coeff 3     40   7.063897770942365040E-02 2.504872880114495270E+00
        pair_coeff 4     40   7.063897770942365040E-02 2.504872880114495270E+00
        pair_coeff 5     40   5.539823784535763407E-02 2.640332054392829697E+00
        pair_coeff 6      40   5.495456790555701410E-02 2.628137055231117181E+00
        pair_coeff 7     40   5.495456790555701410E-02 2.628137055231117181E+00
        pair_coeff 8     40   5.495456790555701410E-02 2.628137055231117181E+00
        pair_coeff 9     40   5.495456790555701410E-02 2.628137055231117181E+00
        pair_coeff 10     40   5.495456790555701410E-02 2.628137055231117181E+00
        pair_coeff 11     40   5.495456790555701410E-02 2.628137055231117181E+00
        pair_coeff 12      40   3.618604110595938922E-02 2.808278980140014092E+00
        pair_coeff 13    40   5.746322902807278477E-03 3.823795705227954755E+00
        pair_coeff 14    40   2.116372372780480487E-02 3.324632757632268287E+00
        pair_coeff 15    40   4.402125093804482719E-02 2.993951524832954014E+00
        pair_coeff 16    40   6.397799041847561374E-02 2.872911743474042101E+00
        pair_coeff 17    40   7.723094710927499995E-02 2.858322350135023004E+00
        pair_coeff 18   40   4.756382176938069029E-02 2.951114794077698278E+00
        pair_coeff 19    40   4.871021634409310186E-02 2.870332337990671334E+00
        pair_coeff 20     40   2.363871921228234349E-02 2.286195847282922244E+00
        pair_coeff 21      40   0.000000000000000000E+00 0.000000000000000000E+00
        pair_coeff 22    40   0.000000000000000000E+00 0.000000000000000000E+00
        pair_coeff 23      40   9.484836036467202136E-02 2.698919204504523606E+00
        pair_coeff 24   40   2.006724075058574086E-01 1.828607061516331456E+00
        pair_coeff 25   40   2.006724075058574086E-01 1.828607061516331456E+00
        pair_coeff 26     40   0.000000000000000000E+00 0.000000000000000000E+00
        pair_coeff 27   40   1.478606180871174514E-01 1.924093842806378074E+00
        pair_coeff 28   40   3.841598999863683750E-02 2.063333071457193135E+00
        pair_coeff 29   40   4.891609792639325244E-02 2.488975910983167061E+00
        pair_coeff 30     40   6.858076068133200920E-02 2.740275456148935529E+00
        pair_coeff 31      40   4.639080137386862590E-02 2.544516968594239259E+00
        pair_coeff 32     40   7.698442252240610129E-02 2.764269704567898334E+00
        pair_coeff 33     40   1.174037646335611834E-01 2.835444526357811412E+00
        pair_coeff 34   40   6.929385610069017931E-02 2.816133007906088892E+00
        pair_coeff 35   40   5.095270523302689036E-02 2.645037805749309356E+00
        pair_coeff 36    40   1.003264779331716934E-02 2.621716237916714931E+00
        pair_coeff 37    40   5.658958721306098921E-02 3.003251098425550492E+00
        pair_coeff 38   40   4.492103907914993949E-02 2.799891255752950503E+00
        pair_coeff 39  40   7.712993371945030263E-02 2.820082387646319688E+00
        pair_coeff 40   40   1.974960730563848910E-02 2.202188219488486975E+00
        pair_coeff 1      41  3.078683944880841739E-01 3.134598379462572915E+00
        pair_coeff 2     41  3.575292004274581159E-01 3.057436901376735072E+00
        pair_coeff 3     41  2.798803586255310671E-01 3.184789154237201991E+00
        pair_coeff 4     41  2.798803586255310671E-01 3.184789154237201991E+00
        pair_coeff 5     41  2.194946639681157330E-01 3.357017019574562333E+00
        pair_coeff 6      41  2.177367888418141884E-01 3.341511841098447899E+00
        pair_coeff 7     41  2.177367888418141884E-01 3.341511841098447899E+00
        pair_coeff 8     41  2.177367888418141884E-01 3.341511841098447899E+00
        pair_coeff 9     41  2.177367888418141884E-01 3.341511841098447899E+00
        pair_coeff 10     41  2.177367888418141884E-01 3.341511841098447899E+00
        pair_coeff 11     41  2.177367888418141884E-01 3.341511841098447899E+00
        pair_coeff 12      41  1.433735664130799115E-01 3.570551028367321855E+00
        pair_coeff 13    41  2.276764142074000352E-02 4.861717010354688284E+00
        pair_coeff 14    41  8.385328863556677781E-02 4.227062551711202154E+00
        pair_coeff 15    41  1.744176359738121573E-01 3.806622052678410917E+00
        pair_coeff 16    41  2.534887038728330655E-01 3.652727543314932213E+00
        pair_coeff 17    41  3.059985559650827969E-01 3.634178042443301226E+00
        pair_coeff 18   41  1.884537393671708305E-01 3.752157829525465615E+00
        pair_coeff 19    41  1.929958963334948985E-01 3.649447990618651438E+00
        pair_coeff 20     41  9.365952658314305457E-02 2.906754988123776862E+00
        pair_coeff 21      41  0.000000000000000000E+00 0.000000000000000000E+00
        pair_coeff 22    41  0.000000000000000000E+00 0.000000000000000000E+00
        pair_coeff 23      41  3.758009242872520916E-01 3.431506915542800851E+00
        pair_coeff 24   41  7.950888758614560459E-01 2.324959475233958628E+00
        pair_coeff 25   41  7.950888758614560459E-01 2.324959475233958628E+00
        pair_coeff 26     41  0.000000000000000000E+00 0.000000000000000000E+00
        pair_coeff 27   41  5.858420401700457081E-01 2.446364943686976545E+00
        pair_coeff 28   41  1.522088994832513364E-01 2.623398911666701139E+00
        pair_coeff 29   41  1.938116246035951340E-01 3.164577152551757422E+00
        pair_coeff 30     41  2.717254484239552959E-01 3.484088802129798879E+00
        pair_coeff 31      41  1.838060876086547446E-01 3.235194132478707463E+00
        pair_coeff 32     41  3.050217950885778517E-01 3.514595987837878077E+00
        pair_coeff 33     41  4.651682231981815185E-01 3.605090320820125260E+00
        pair_coeff 34   41  2.745508205934842905E-01 3.580536933298883895E+00
        pair_coeff 35   41  2.018809144184158522E-01 3.363000088017528810E+00
        pair_coeff 36    41  3.975059030310198332E-02 3.333348173589975261E+00
        pair_coeff 37    41  2.242149373793861367E-01 3.818445878690444051E+00
        pair_coeff 38   41  1.776054487496074863E-01 3.479086156840626831E+00
        pair_coeff 39  41  3.047290431444037995E-01 3.499464919472758506E+00
        pair_coeff 40   41  7.825038462692963936E-02 2.799944545168011611E+00
        pair_coeff 41  41  3.100376933831125448E-01 3.559954315729227936E+00
        pair_coeff 1      42  2.517150719017874350E-01 3.216286733597559344E+00
        pair_coeff 2     42  2.923180488930291476E-01 3.137114409660223480E+00
        pair_coeff 3     42  2.288318835470794788E-01 3.267785491497223305E+00
        pair_coeff 4     42  2.288318835470794788E-01 3.267785491497223305E+00
        pair_coeff 5     42  1.794601723072659361E-01 3.444501654585188533E+00
        pair_coeff 6      42  1.780229229119614787E-01 3.428592407594721170E+00
        pair_coeff 7     42  1.780229229119614787E-01 3.428592407594721170E+00
        pair_coeff 8     42  1.780229229119614787E-01 3.428592407594721170E+00
        pair_coeff 9     42  1.780229229119614787E-01 3.428592407594721170E+00
        pair_coeff 10     42  1.780229229119614787E-01 3.428592407594721170E+00
        pair_coeff 11     42  1.780229229119614787E-01 3.428592407594721170E+00
        pair_coeff 12      42  1.172230999498745652E-01 3.663600408719620116E+00
        pair_coeff 13    42  1.861496210673063006E-02 4.988414472922134912E+00
        pair_coeff 14    42  6.855895881485152277E-02 4.337220773235620719E+00
        pair_coeff 15    42  1.426049200441300291E-01 3.905823498176049124E+00
        pair_coeff 16    42  2.072539060975635561E-01 3.747918462531858008E+00
        pair_coeff 17    42  2.501862805523388245E-01 3.728885557404626905E+00
        pair_coeff 18   42  1.540809235512614617E-01 3.849939924851243589E+00
        pair_coeff 19    42  1.577946187139902257E-01 3.744553443938634096E+00
        pair_coeff 20     42  7.657659860592054557E-02 2.982505691119483604E+00
        pair_coeff 21      42  0.000000000000000000E+00 0.000000000000000000E+00
        pair_coeff 22    42  0.000000000000000000E+00 0.000000000000000000E+00
        pair_coeff 23      42  3.072571214561132247E-01 3.520932774360979955E+00
        pair_coeff 24   42  6.500695009260647472E-01 2.385548453460561547E+00
        pair_coeff 25   42  6.500695009260647472E-01 2.385548453460561547E+00
        pair_coeff 26     42  0.000000000000000000E+00 0.000000000000000000E+00
        pair_coeff 27   42  4.789880153488779158E-01 2.510117776321816319E+00
        pair_coeff 28   42  1.244469220077783211E-01 2.691765290191502125E+00
        pair_coeff 29   42  1.584615631091823018E-01 3.247046760402909182E+00
        pair_coeff 30     42  2.221643793651205678E-01 3.574884956996347896E+00
        pair_coeff 31      42  1.502809752047785663E-01 3.319504035055336644E+00
        pair_coeff 32     42  2.493876749186909880E-01 3.606187166974876845E+00
        pair_coeff 33     42  3.803243686103310317E-01 3.699039803071263677E+00
        pair_coeff 34   42  2.244744208358758208E-01 3.673846548628572073E+00
        pair_coeff 35   42  1.650590635421556873E-01 3.450640643166755339E+00
        pair_coeff 36    42  3.250032440946476475E-02 3.420215993034873669E+00
        pair_coeff 37    42  1.833194965587523484E-01 3.917955455811204413E+00
        pair_coeff 38   42  1.452112951590650569E-01 3.569751941621275737E+00
        pair_coeff 39  42  2.491483191485096838E-01 3.590661779490871286E+00
        pair_coeff 40   42  6.397799041847561374E-02 2.872911743474042101E+00
        pair_coeff 41  42  2.534887038728330655E-01 3.652727543314932213E+00
        pair_coeff 42  42  2.072539060975635561E-01 3.747918462531858008E+00
        pair_coeff 1      43  3.540045720962458620E-01 2.694267436109534231E+00
        pair_coeff 2     43  4.111073883361350823E-01 2.627945173235017418E+00
        pair_coeff 3     43  2.223108962183115156E-01 2.911490578234520399E+00
        pair_coeff 4     43  3.218223382693144452E-01 2.737407690042663599E+00
        pair_coeff 5     43  1.944751755089789147E-01 3.013558317663839858E+00
        pair_coeff 6      43  1.512164790871689257E-01 3.123905428815852758E+00
        pair_coeff 7     43  1.305838306072752142E-01 3.201224736341582222E+00
        pair_coeff 8     43  9.576715086909036445E-02 3.371022389085928772E+00
        pair_coeff 9     43  1.595945784173651294E-01 3.095955496253500083E+00
        pair_coeff 10     43  1.367847387646038970E-01 3.176567760880071756E+00
        pair_coeff 11     43  1.480915417673231704E-01 3.134796518078508232E+00
        pair_coeff 12      43  1.648590726968548470E-01 3.068979881992677683E+00
        pair_coeff 13    43  2.617952769134209573E-02 4.178770049266796960E+00
        pair_coeff 14    43  9.641927555329404820E-02 3.633268318548095621E+00
        pair_coeff 15    43  2.005553077041754007E-01 3.271888962013142610E+00
        pair_coeff 16    43  2.914757141438480414E-01 3.139612697248032713E+00
        pair_coeff 17    43  3.518545255241552483E-01 3.123668927072572821E+00
        pair_coeff 18   43  2.166948168731066826E-01 3.225075569957748023E+00
        pair_coeff 19    43  2.219176470240586396E-01 3.136793837871186597E+00
        pair_coeff 20     43  1.076950451050141949E-01 2.498430216949698135E+00
        pair_coeff 21      43  0.000000000000000000E+00 0.000000000000000000E+00
        pair_coeff 22    43  0.000000000000000000E+00 0.000000000000000000E+00
        pair_coeff 23      43  4.321172545720066149E-01 2.949467912669808012E+00
        pair_coeff 24   43  2.241432820636522216E-01 2.525979396632042295E+00
        pair_coeff 25   43  1.232760656668827753E-01 2.790643100279648792E+00
        pair_coeff 26     43  0.000000000000000000E+00 0.000000000000000000E+00
        pair_coeff 27   43  5.190637964627597967E-01 2.196075677037649054E+00
        pair_coeff 28   43  1.348590981935383903E-01 2.354997178955427373E+00
        pair_coeff 29   43  1.717196629251071804E-01 2.840807104746190692E+00
        pair_coeff 30     43  3.124453591831943267E-01 2.994663388329067644E+00
        pair_coeff 31      43  2.113506828162100282E-01 2.780732057331203322E+00
[...]
  909000     8661    329.37314    320.47716   -30600.263    5667.9243            0   -30600.263            0            0    72229.574    5929.2353   -24932.339    89857.336    1.0686946 
  910000     8661    322.26694   -56.836998   -30635.521    5545.6393            0   -30635.521            0            0    72312.594    5810.7554   -25089.882    89690.336    1.0706845 
  911000     8661    329.31486    543.47963   -30788.393    5666.9214            0   -30788.393            0            0    71951.691    6018.3953   -25121.471    89189.925    1.0766917 
  912000     8661    326.24662   -365.91162   -30870.371    5614.1224            0   -30870.371            0            0    72168.747    5722.7235   -25256.249    89240.123     1.076086 
  913000     8661    330.67565   -28.652077   -30659.774    5690.3381            0   -30659.774            0            0    72251.034    5841.0919   -24969.436    90182.605      1.06484 
  914000     8661    325.50075   -91.451361   -30686.887    5601.2873            0   -30686.887            0            0    72283.818     5789.825     -25085.6    89505.248    1.0728985 
  915000     8661    325.03292    1.1842089   -30800.003    5593.2368            0   -30800.003            0            0     72072.99    5891.3745   -25206.767    89592.393    1.0718549 
  916000     8661     319.1817    114.60987   -30622.459    5492.5478            0   -30622.459            0            0    72295.309    5844.8755   -25129.911    89450.713    1.0735526 
  917000     8661    327.54548   -160.56814   -30625.882    5636.4735            0   -30625.882            0            0    72440.001    5694.8533   -24989.408     89489.85    1.0730831 
  918000     8661    326.85057    389.02876   -30503.584    5624.5153            0   -30503.584            0            0    72309.212     5945.579   -24879.069    90355.547    1.0628019 
  919000     8661     326.6004    -74.73267   -30688.858    5620.2104            0   -30688.858            0            0    72319.699    5750.8369   -25068.648    88977.085    1.0792672 
  920000     8661    327.34327   -3.4746215   -30747.301    5632.9938            0   -30747.301            0            0    72145.143    5870.1819   -25114.307      89692.4    1.0706598 
  921000     8661    334.07816     301.7566   -30687.243    5748.8893            0   -30687.243            0            0    72124.598    5948.1813   -24938.354    89882.237    1.0683985 
  922000     8661     329.0559   -113.26117   -30610.137    5662.4651            0   -30610.137            0            0    72383.902    5761.7183   -24947.672    90349.307    1.0628753 
  923000     8661    330.67804   -539.51006    -30769.56    5690.3793            0    -30769.56            0            0    72346.377    5646.3721   -25079.181    90054.017    1.0663605 
  924000     8661    330.87369   -192.79442   -30585.421    5693.7461            0   -30585.421            0            0    72447.065    5725.1741   -24891.675    90066.388    1.0662141 
  925000     8661    327.95757   -139.84493   -30655.348    5643.5649            0   -30655.348            0            0    72259.856    5847.4918   -25011.783    91051.214    1.0546817 
  926000     8661    334.15071    17.726355    -30696.75    5750.1377            0    -30696.75            0            0     72230.75    5833.3709   -24946.612    89948.417    1.0676124 
  927000     8661    327.48637    874.46335   -30530.549    5635.4564            0   -30530.549            0            0    72141.809    6090.3265   -24895.092    89883.036     1.068389 
  928000     8661    322.78849    9.5550388   -30647.202    5554.6142            0   -30647.202            0            0    72263.291    5848.2599   -25092.588    90288.678     1.063589 
  929000     8661    323.35454   -199.38347    -30592.72    5564.3549            0    -30592.72            0            0    72377.663     5788.311   -25028.365    90738.545    1.0583159 
  930000     8661    328.60028    126.92199   -30691.164    5654.6248            0   -30691.164            0            0    72198.862    5872.8306    -25036.54    89837.281    1.0689332 
  931000     8661    325.48403   -29.934797   -30860.368    5600.9997            0   -30860.368            0            0    72011.621    5889.4595   -25259.368    89457.396    1.0734724 
  932000     8661    322.88442   -86.950718    -30595.75    5556.2649            0    -30595.75            0            0    72418.712    5743.1191   -25039.485    89988.837    1.0671329 
  933000     8661     325.0782   -53.757038   -30786.748     5594.016            0   -30786.748            0            0    72128.568    5843.8612   -25192.732    89590.791    1.0718741 
  934000     8661    328.50584   -339.69758   -30829.723    5652.9997            0   -30829.723            0            0    72199.159    5730.9147   -25176.723    89783.721    1.0695708 
  935000     8661    325.06043    -472.5657   -30559.691    5593.7103            0   -30559.691            0            0     72621.38    5574.9645   -24965.981    90118.853    1.0655933 
  936000     8661    328.73029    239.05049   -30486.413     5656.862            0   -30486.413            0            0     72367.37    5907.7341   -24829.551    90633.634     1.059541 
  937000     8661    327.70533    114.32769   -30595.085    5639.2243            0   -30595.085            0            0    72312.765    5847.7066    -24955.86    90524.043    1.0608237 
  938000     8661    332.74892   -88.680441   -30622.033    5726.0155            0   -30622.033            0            0    72344.551    5797.9815   -24896.018    90028.698    1.0666604 
  939000     8661    329.25474   -75.120638   -30643.166    5665.8868            0   -30643.166            0            0     72369.04    5748.9521   -24977.279    89589.272    1.0718923 
  940000     8661    327.64274   -16.766197   -30640.428    5638.1471            0   -30640.428            0            0    72313.898    5806.2133   -25002.281    89857.987    1.0686868 
  941000     8661    329.32517   -184.01395   -30586.245    5667.0988            0   -30586.245            0            0    72463.979    5709.4606   -24919.146    89511.024    1.0728293 
  942000     8661      329.967    -14.19728   -30896.981    5678.1436            0   -30896.981            0            0    71997.778    5867.1649   -25218.838    89202.729    1.0765371 
  943000     8661    323.69798    255.59391    -30736.82    5570.2648            0    -30736.82            0            0    72080.558     5943.711   -25166.556    89352.241    1.0747358 
  944000     8661    328.86844    210.59974   -30790.205    5659.2393            0   -30790.205            0            0    72051.246    5922.2645   -25130.966    89308.692    1.0752598 
  945000     8661    326.37254    466.30436   -30654.766    5616.2893            0   -30654.766            0            0     72088.17    6017.0439   -25038.476    90022.618    1.0667324 
  946000     8661    326.95935   -122.75745   -30692.211    5626.3873            0   -30692.211            0            0    72197.523    5875.7528   -25065.824     90879.61    1.0566732 
  947000     8661    322.90469   -163.50963   -30739.812    5556.6138            0   -30739.812            0            0    72256.184    5761.1469   -25183.198    89587.323    1.0719156 
  948000     8661     332.8022    -656.8661   -30630.414    5726.9323            0   -30630.414            0            0    72524.227    5605.2623   -24903.482    90791.162    1.0577026 
  949000     8661    322.87611   -323.00346   -30569.034     5556.122            0   -30569.034            0            0    72520.848    5672.8218   -25012.912    89710.353    1.0704455 
  950000     8661    320.76831   -55.095874   -30674.782    5519.8505            0   -30674.782            0            0    72311.211    5775.6842   -25154.931    89457.201    1.0734748 
  951000     8661    330.44048   -72.993729   -30601.723    5686.2912            0   -30601.723            0            0    72369.603    5789.9615   -24915.431    90549.281     1.060528 
  952000     8661    328.42789   -137.27755   -30581.282    5651.6583            0   -30581.282            0            0     72444.83    5735.3172   -24929.624    89972.232    1.0673298 
  953000     8661    328.26427    218.04985   -30635.086    5648.8426            0   -30635.086            0            0    72242.156    5886.3531   -24986.243    89816.187    1.0691842 
  954000     8661    323.89948    304.89195   -30729.078    5573.7323            0   -30729.078            0            0    72105.356    5930.1671   -25155.346    89138.527    1.0773125 
  955000     8661    326.99228    209.90468   -30564.009    5626.9539            0   -30564.009            0            0    72252.687     5942.965   -24937.055    90636.067    1.0595125 
  956000     8661    332.53771   -430.71585   -30584.448    5722.3808            0   -30584.448            0            0    72470.778    5708.4822   -24862.067    91019.628    1.0550477 
  957000     8661    331.22725   -443.74662   -30635.669    5699.8302            0   -30635.669            0            0    72500.387    5627.4001   -24935.839    89710.508    1.0704437 
  958000     8661    330.67885    21.127677    -30658.86    5690.3932            0    -30658.86            0            0    72282.931    5821.4099   -24968.467    89963.718    1.0674309 
  959000     8661    322.52275     128.0931   -30545.422    5550.0413            0   -30545.422            0            0    72382.417    5836.2721   -24995.381    89778.773    1.0696298 
  960000     8661    325.54944    41.603049   -30627.409    5602.1253            0   -30627.409            0            0    72302.278    5832.3557   -25025.284    89757.688     1.069881 
  961000     8661    325.36742   -141.46168   -30727.174     5598.993            0   -30727.174            0            0    72267.837    5770.3018   -25128.181    89616.354    1.0715683 
  962000     8661    327.53655   -233.16012   -30803.502    5636.3198            0   -30803.502            0            0    72177.659    5782.6284   -25167.182    89933.033    1.0677951 
  963000     8661    331.55615    2.9038665   -30626.481    5705.4901            0   -30626.481            0            0    72335.455    5800.9382   -24920.991    89720.366    1.0703261 
  964000     8661    328.29968    200.42365   -30784.017    5649.4519            0   -30784.017            0            0    72149.753    5828.4176   -25134.565     88173.37    1.0891049 
  965000     8661    330.75656   -32.531277   -30597.042    5691.7305            0   -30597.042            0            0    72410.716     5749.219   -24905.312    89601.786    1.0717426 
  966000     8661    331.98019   -294.53471    -30578.65     5712.787            0    -30578.65            0            0    72512.957    5667.6964   -24865.863    90360.448    1.0627443 
  967000     8661     327.5946    69.054837    -30569.59    5637.3188            0    -30569.59            0            0    72376.618     5812.339   -24932.272    89878.838    1.0684389 
  968000     8661    326.14671    -111.8776   -30664.185    5612.4032            0   -30664.185            0            0    72300.718    5794.7471   -25051.782    89982.495    1.0672081 
  969000     8661    329.00539    185.11014   -30663.125     5661.596            0   -30663.125            0            0    72209.038    5889.8242   -25001.529    89831.705    1.0689995 
  970000     8661    324.53345   -53.432533   -30582.798    5584.6418            0   -30582.798            0            0    72391.498    5788.4976   -24998.157    90240.905    1.0641521 
  971000     8661    328.69279     106.1295   -30461.874    5656.2167            0   -30461.874            0            0    72493.778    5805.0074   -24805.657    90072.322    1.0661438 
  972000     8661    330.05661   -169.73797   -30763.522    5679.6855            0   -30763.522            0            0    72228.303    5768.5458   -25083.837    89590.193    1.0718812 
  973000     8661    333.66729    77.198729   -30569.207     5741.819            0   -30569.207            0            0    72348.882    5840.2768   -24827.388    90162.219    1.0650808 
  974000     8661    326.80158   -241.23529   -30702.752    5623.6724            0   -30702.752            0            0    72293.418    5764.3254    -25079.08    90292.083    1.0635489 
  975000     8661    333.18755   -2.2417392   -30542.435    5733.5635            0   -30542.435            0            0    72487.716    5731.9547   -24808.871     89597.77    1.0717906 
  976000     8661    333.02886    410.93238   -30679.551    5730.8327            0   -30679.551            0            0    72073.812    6002.7222   -24948.719    90108.776    1.0657125 
  977000     8661    319.21217    273.91088   -30745.496    5493.0722            0   -30745.496            0            0    72031.881    5984.6777   -25252.424    89620.645     1.071517 
  978000     8661    328.72803   -2.4903994   -30697.733    5656.8231            0   -30697.733            0            0    72192.855    5871.1414    -25040.91    90238.202     1.064184 
  979000     8661    329.50183   -410.26769   -30853.419    5670.1389            0   -30853.419            0            0    72167.856    5741.9273    -25183.28    89969.773     1.067359 
  980000     8661    331.43371    -158.6876     -30636.1     5703.383            0     -30636.1            0            0    72374.476    5748.8132   -24932.717    90376.854    1.0625513 
  981000     8661    328.64269   -324.64248   -30630.253    5655.3544            0   -30630.253            0            0    72454.825    5677.4055   -24974.899    89831.794    1.0689984 
  982000     8661    330.17301    12.717614   -30750.304    5681.6887            0   -30750.304            0            0    72178.996     5832.528   -25068.616    89599.028    1.0717756 
  983000     8661    331.71051    121.16582   -30753.793    5708.1462            0   -30753.793            0            0    72063.322    5946.2801   -25045.647    89962.655    1.0674435 
  984000     8661    329.48413   -3.4984229   -30423.308    5669.8342            0   -30423.308            0            0    72595.773    5739.3029   -24753.473    90169.989     1.064989 
  985000     8661    328.12026   -131.43975   -30720.375    5646.3644            0   -30720.375            0            0    72259.999    5781.5838   -25074.011    89768.419    1.0697531 
  986000     8661    332.11902   -5.5036028   -30600.375    5715.1759            0   -30600.375            0            0    72385.832    5771.6086   -24885.199    89768.704    1.0697497 
  987000     8661    333.38378   -267.66406   -30714.255    5736.9402            0   -30714.255            0            0    72249.622    5796.3583   -24977.315    91030.405    1.0549228 
  988000     8661    328.27056     46.02192   -30615.859    5648.9509            0   -30615.859            0            0    72346.007     5798.134   -24966.909    89795.631     1.069429 
  989000     8661    326.78842   -398.82144   -30775.046    5623.4459            0   -30775.046            0            0    72219.225    5769.7711     -25151.6    90502.304    1.0610785 
  990000     8661    330.61184    226.80115   -30477.156    5689.2401            0   -30477.156            0            0    72449.118    5833.2231   -24787.916    89708.669    1.0704656 
  991000     8661    327.91996    101.73626   -30605.266    5642.9176            0   -30605.266            0            0    72312.818    5842.5737   -24962.348    90002.187    1.0669746 
  992000     8661    327.47401   0.76520096   -30858.195    5635.2436            0   -30858.195            0            0    72016.994    5886.6286   -25222.951    88867.708    1.0805955 
  993000     8661    326.30263    68.244737   -30611.426    5615.0863            0   -30611.426            0            0    72359.722    5789.5175    -24996.34    89477.078    1.0732363 
  994000     8661     323.3814   -510.24718   -30701.053    5564.8171            0   -30701.053            0            0    72402.396    5655.2465   -25136.236     90508.44    1.0610066 
  995000     8661    324.23777    -148.3115   -30662.463    5579.5537            0   -30662.463            0            0     72394.76    5703.9163    -25082.91    89111.264    1.0776421 
  996000     8661    324.11757   -353.10839   -30666.148    5577.4853            0   -30666.148            0            0    72363.845    5730.4527   -25088.663     90267.26    1.0638414 
  997000     8661    329.69357    220.67281   -30468.526    5673.4382            0   -30468.526            0            0    72461.518    5828.6815   -24795.087     90125.23    1.0655179 
  998000     8661    327.30032   -88.255975   -30613.715    5632.2548            0   -30613.715            0            0    72426.198    5725.0757    -24981.46    89448.604    1.0735779 
  999000     8661    330.33142    25.354397   -30551.086    5684.4145            0   -30551.086            0            0    72436.715    5771.3796   -24866.672    89735.808    1.0701419 
 1000000     8661    326.85854    286.22756   -30722.995    5624.6525            0   -30722.995            0            0    72092.052    5943.7158   -25098.343    89308.541    1.0752616 
Loop time of 52623.7 on 4 procs for 1000000 steps with 8661 atoms

Performance: 1.642 ns/day, 14.618 hours/ns, 19.003 timesteps/s
93.9% CPU use with 4 MPI tasks x no OpenMP threads

MPI task timing breakdown:
Section |  min time  |  avg time  |  max time  |%varavg| %total
---------------------------------------------------------------
Pair    | 42007      | 43297      | 44852      | 570.1 | 82.28
Bond    | 4.1587     | 4.592      | 5.0951     |  18.9 |  0.01
Kspace  | 3525.6     | 5067.6     | 6344.1     |1654.0 |  9.63
Neigh   | 2458.3     | 2459       | 2459.7     |   1.0 |  4.67
Comm    | 561.82     | 581.63     | 602.74     |  61.2 |  1.11
Output  | 0.94817    | 0.95814    | 0.98498    |   1.6 |  0.00
Modify  | 1119.6     | 1129.6     | 1134.3     |  17.5 |  2.15
Other   |            | 83.76      |            |       |  0.16

Nlocal:    2165.25 ave 2186 max 2149 min
Histogram: 2 0 0 0 0 0 0 1 0 1
Nghost:    19781 ave 19854 max 19732 min
Histogram: 2 0 0 0 0 1 0 0 0 1
Neighs:    1.79947e+06 ave 1.86883e+06 max 1.73702e+06 min
Histogram: 2 0 0 0 0 0 0 0 1 1

Total # of neighbors = 7197889
Ave neighs/atom = 831.069
Ave special neighs/atom = 2
Neighbor list builds = 39375
Dangerous builds = 0
 write_data data.4
PPPM initialization ...
  using 12-bit tables for long-range coulomb (../kspace.cpp:332)
  G vector (1/distance) = 0.18653
  grid = 16 16 16
  stencil order = 5
  estimated absolute RMS force accuracy = 0.0306694
  estimated relative force accuracy = 9.23599e-05
  using double precision KISS FFT
  3d grid and FFT values/proc = 3549 1024


# ----------------- Run Section -----------------

# The lines above define the system you want to simulate.
# What you do next is up to you.
# Typically a user would minimize and equilibrate
# the system using commands similar to the following:
#  ----   examples   ----
#
#  -- minimize --
# minimize 1.0e-5 1.0e-7 1000 10000
# (Note: Some fixes, for example "shake", interfere with the minimize command,
#        You can use the "unfix" command to disable them before minimization.)
#  -- declare time step for normal MD --
# timestep 1.0
#  -- run at constant pressure (Nose-Hoover)--
# fix   fxnpt all npt temp 300.0 300.0 100.0 iso 1.0 1.0 1000.0 drag 1.0
#  -- ALTERNATELY, run at constant volume (Nose-Hoover) --
# fix   fxnvt all nvt temp 300.0 300.0 500.0 tchain 1
#  -- ALTERNATELY, run at constant volume using Langevin dynamics. --
#  -- (This is good for sparse CG polymers in implicit solvent.)   --
# fix fxLAN all langevin 300.0 300.0 5000 48279
# fix fxNVE all nve  #(<--needed by fix langevin)
#  -- Now, finally run the simulation --
# run   50000
#  ---- (end of examples) ----

Total wall time: 14:37:04
