LAMMPS data file via write_data, version 3 Mar 2020, timestep = 1000000

8661 atoms
71 atom types
5774 bonds
254 bond types
2887 angles
155 angle types
0 dihedrals
47 dihedral types
0 impropers
5 improper types

7.6964621577425874e+00 5.2303537842240814e+01 xlo xhi
7.6964621577425874e+00 5.2303537842240814e+01 ylo yhi
7.6964621577425874e+00 5.2303537842240814e+01 zlo zhi

Masses

1 15.9994
2 15.9994
3 15.9994
4 15.9994
5 15.9994
6 14.0067
7 14.0067
8 14.0067
9 14.0067
10 14.0067
11 14.0067
12 12.011
13 12.011
14 13.019
15 14.027
16 15.035
17 16.043
18 14.027
19 12.011
20 1.008
21 1.008
22 1
23 32.06
24 63.546
25 63.546
26 55.847
27 65.37
28 24.305
29 40.08
30 39.948
31 18.9984
32 35.453
33 79.904
34 12.011
35 15.9994
36 22.9898
37 35.453
38 12.011
39 35.453
40 1.008
41 32.06
42 12.011
43 15.9994
44 12.011
45 35.453
46 18.9984
47 12.011
48 13.019
49 15.9994
50 12.011
51 15.9994
52 14.0067
53 15.035
54 126.904
55 35.453
56 10.811
57 78.96
58 1.008
59 35.453
60 79.904
61 15.9994
62 14.0067
63 12.011
64 12.011
65 14.0067
66 14.0067
67 15.9994
68 28.08
69 30.9738
70 15.9994
71 2.016

Pair Coeffs # lj/cut/coul/long

1 0.305714 2.76007
2 0.412295 2.62585
3 0.203061 2.95484
4 0.252656 2.84916
5 0.155394 3.16565
6 0.152915 3.13647
7 0.0700622 3.5722
8 0.152915 3.13647
9 0.104651 3.34113
10 0.152915 3.13647
11 0.152915 3.13647
12 0.0663015 3.58118
13 0.00167194 6.63949
14 0.0226791 5.01918
15 0.098122 4.07038
16 0.207254 3.74792
17 0.302012 3.70995
18 0.11455 3.95474
19 0.120138 3.74119
20 0.0282937 2.37341
21 0 0
22 0 0
23 0.455513 3.30769
24 2.039 1.5184
25 2.039 1.5184
26 0 0
27 1.107 1.68112
28 0.0747249 1.93323
29 0.121156 2.81311
30 0.238148 3.40984
31 0.10897 2.94006
32 0.300087 3.46982
33 0.69792 3.6508
34 0.243126 3.60124
35 0.131455 3.17694
36 0.00509651 3.12117
37 0.162149 4.09571
38 0.101741 3.40006
39 0.299511 3.44
40 0.0197496 2.20219
41 0.310038 3.55995
42 0.207254 3.74792
43 0.409923 2.63004
44 0.0544087 3.7739
45 0.270582 3.44757
46 0.0828967 3.07717
47 0.0970049 3.3611
48 0.117014 3.91992
49 0.203061 2.95484
50 0.105027 3.74991
51 0.210013 2.95998
52 0.169966 3.25006
53 0.207254 3.74792
54 0.836845 3.84961
55 0.329921 3.26983
56 0.0663015 3.58118
57 0.455513 3.30769
58 0 0
59 0.329921 3.26983
60 0.580843 3.89995
61 0.119432 3.40025
62 0.1399 3.9019
63 0.0734574 3.52053
64 0.245018 2.81144
65 0.142655 4.06776
66 0.219779 3.64529
67 0.119497 3.1
68 0.584786 3.38557
69 0.584786 3.38557
70 0.1553 3.166
71 0 0

Bond Coeffs # harmonic

1 375.239 1
2 446.941 1
3 349.274 1.09
4 1109.29 1.12
5 600.242 1.23
6 500.418 1.25
7 499.732 1.32
8 375.003 1.33
9 448.144 1.33
10 498.877 1.33
11 450.617 1.34
12 502.116 1.34
13 450.906 1.36
14 500.679 1.38
15 399.904 1.39
16 498.726 1.39
17 400.057 1.4
18 399.792 1.43
19 450.132 1.43
20 300.222 1.435
21 449.843 1.47
22 299.976 1.48
23 399.968 1.48
24 450.226 1.48
25 450.108 1.5
26 299.844 1.52
27 400.034 1.53
28 299.851 1.61
29 299.727 1.63
30 205.976 1.78
31 449.816 1.78
32 449.828 1.83
33 300.045 1.87
34 59.9679 1.98
35 60.0382 2
36 500.307 2.04
37 63.0357 2.21
38 554.493 1
39 349.928 1.1
40 599.794 1.758
41 449.829 1.53
42 444.341 1.93799
43 599.679 1.76
44 501.026 1.265
45 448.656 1.35
46 555.129 1.63299
47 350.249 2.33839
48 600.161 2.90283
49 445.884 2.79388
50 443.815 2.91189
51 409.328 2.077
52 600.173 2.87407
53 88.4321 1.1
54 56.1663 1.84
55 513.862 1.01
56 310.707 1.41
57 442.161 1.02
58 239.006 1.46
59 513.862 1.29
60 442.161 0.972
61 812.62 1.22
62 466.061 1.22
63 239.006 1.54
64 179.254 1.56
65 227.055 1.54
66 106.358 1.76
67 131.453 1.69
68 203.155 1.75
69 203.155 1.51
70 143.403 1.57
71 179.254 0.971
72 191.205 1.5
73 262.906 1.45
74 549.713 1.52
75 83.652 1.03
76 191.205 1.74
77 191.205 1.72
78 227.055 1.64
79 203.155 1.67
80 191.205 1.66
81 215.105 1.65
82 513.862 1.31
83 155.354 1.01
84 35.8509 1.89
85 101.577 1.93
86 155.354 1.36
87 167.304 1.79
88 114.723 1.35
89 155.354 1.39
90 203.155 1.38
91 227.055 0.983
92 155.354 1.3
93 418.26 1.08
94 155.354 1.9
95 1314.53 1.16
96 143.403 1.8
97 155.354 1.42
98 478.011 0.984
99 119.503 1.08
100 119.503 1.91
101 418.26 1.03
102 525.813 1.28
103 131.453 1.22
104 143.403 1.11
105 1195.03 1.21
106 466.061 1.07
107 956.023 1.21
108 693.117 1.21
109 87.2371 1.85
110 394.359 1.11
111 109.943 2.09
112 131.453 1.82
113 99.1874 1.96
114 56.1663 1.86
115 167.304 1.21
116 167.304 1.28
117 143.403 1.71
118 131.453 1.6
119 454.111 1.21
120 41.826 1.61
121 131.453 1.94
122 155.354 1.59
123 143.403 2.1
124 119.503 2.12
125 57.3614 2.13
126 203.155 1.26
127 1195.03 1.14
128 191.205 1.23
129 788.719 1.3
130 239.006 1.31
131 59.7514 2.04
132 82.457 1.34
133 621.415 0.938
134 310.707 1.16
135 34.6558 2.07
136 60.9465 1.16
137 93.2122 2.16
138 43.021 2.23
139 23.9006 2.05
140 896.272 1.19
141 728.967 1.47
142 394.359 1.57
143 1195.03 1.18
144 54.9713 1.87
145 1063.58 1.17
146 215.105 1.13
147 59.7514 2.02
148 179.254 1.07
149 250.956 1.14
150 155.354 1.06
151 537.763 1.46
152 812.62 1.17
153 92.0172 2.15
154 239.006 1.04
155 60.9465 1.4
156 1314.53 1.11
157 466.061 1.56
158 752.868 1.49
159 501.912 1.54
160 35.8509 2.17
161 35.8509 2.27
162 669.216 1.45
163 764.818 1.25
164 848.47 1.27
165 561.663 1.16
166 1434.03 1.14
167 501.912 1.17
168 537.763 1.19
169 920.172 1.14
170 227.055 1.24
171 1434.03 1.13
172 89.6272 2.91
173 57.3614 2.24
174 418.26 0.743
175 239.006 1.2
176 111.138 2.33
177 96.7973 2.42
178 83.652 1.32
179 1159.18 1.2
180 1314.53 1.2
181 430.21 1.58
182 53.7763 1.47
183 1.55354 2.77
184 5.13862 2.25
185 100.382 2.18
186 50.1912 1.52
187 93.2122 2.19
188 27.4857 1.48
189 1912.05 1.07
190 8.60421 2.8
191 87.2371 2.52
192 0.669216 2.79
193 812.62 1.16
194 1.79254 2.68
195 406.31 1.59
196 119.503 1.18
197 34.6558 2.54
198 1792.54 1.1
199 824.57 1.29
200 33.4608 2.44
201 107.553 2.41
202 112.333 2.36
203 20.3155 1.43
204 2.27055 2.57
205 19.1205 2.47
206 0.764818 2.71
207 1553.54 1.12
208 3.70459 2.75
209 501.912 1.14
210 0.717017 2.86
211 10.5163 2.64
212 1912.05 0.985
213 1.91205 2.61
214 7.40918 2.62
215 59.7514 2.46
216 3.58509 2.66
217 1.31453 2.72
218 58.5564 1.63
219 573.614 1.12
220 37.0459 2.32
221 16.7304 1.44
222 1553.54 1.16
223 7.17017 2.69
224 10.0382 2.49
225 3.22658 2.92
226 0.82457 2.29
227 9.79924 2.4
228 1.03967 2.37
229 1.55354 2.94
230 5.85564 2.95
231 1.67304 2.96
232 0.0131453 2.56
233 5.25813 2.59
234 15.5354 2.38
235 836.52 1.12
236 1.91205 2.5
237 2.39006 2.3
238 585.564 1.04
239 3.34608 2.99
240 0.967973 2.34
241 1.07553 2.98
242 2.27055 2.74
243 1063.58 1.16
244 812.62 1.5
245 1.31453 2.84
246 0.322658 2.82
247 908.222 1.23
248 466.061 1.05
249 3.34608 2.88
250 1434.03 1.18
251 1673.04 1.15
252 6.33365 2.9
253 0 0
254 100 1

Angle Coeffs # harmonic

1 45.3116 90
2 50.0917 90
3 47.7712 96
4 54.9551 100
5 47.5559 103
6 55.0345 104
7 50.1709 108
8 30.1731 109.5
9 33.8897 109.5
10 40.2609 109.5
11 45.0394 109.5
12 47.694 109.5
13 55.1272 109.5
14 47.635 109.6
15 55.1139 111
16 55.0997 113
17 4.824 115
18 45.0699 115
19 59.7937 115
20 44.8085 116
21 59.7719 116
22 60.1639 117
23 34.88 120
24 39.8095 120
25 45.1871 120
26 47.4278 120
27 50.1166 120
28 59.9756 120
29 69.8346 120
30 60.0726 121
31 60.091 122
32 34.8146 123
33 59.8929 124
34 30.0075 125
35 60.0779 125
36 44.9139 126
37 49.998 126
38 60.166 126
39 50.1189 132
40 47.5187 155
41 28.4971 180
42 45.9951 109.5
43 52.4767 107.57
44 65.472 111.3
45 55.0189 97.4
46 55.0247 106.75
47 47.5019 108.53
48 65.5335 109.5
49 54.9566 107.6
50 47.4817 109.5
51 54.9931 110.3
52 55.0234 111.4
53 60.044 117.2
54 60.0023 121.4
55 48.24 180
56 180.46 109
57 192.229 106
58 145.153 126
59 145.153 96.2
60 156.922 114
61 203.998 119
62 239.306 130
63 298.152 107
64 156.922 134
65 239.306 101
66 286.382 113
67 368.766 134
68 356.997 119
69 333.459 126
70 251.075 89.6
71 380.536 114
72 286.382 135
73 145.153 88.3
74 133.384 60
75 380.536 179
76 251.075 180
77 470.766 178
78 47.0766 59.9
79 47.0766 60.3
80 251.075 124
81 706.149 118
82 117.691 144
83 627.688 123
84 470.766 118
85 333.459 94.8
86 90.2301 175
87 156.922 82.8
88 117.691 77.6
89 239.306 145
90 251.075 50.8
91 380.536 104
92 262.844 84.4
93 215.768 63.3
94 215.768 61
95 298.152 173
96 192.229 173
97 82.384 50.9
98 431.535 127
99 62.7688 67.8
100 156.922 180
101 588.457 118
102 30.1731 110
103 227.537 94.8
104 431.535 173
105 34.5228 78.5
106 70.6149 138
107 70.6149 168
108 156.922 167
109 18.046 149
110 333.459 144
111 356.997 148
112 321.69 144
113 356.997 148
114 321.69 147
115 333.459 144
116 5099.96 60.8
117 1451.53 68
118 298.152 161
119 156.922 155
120 309.921 154
121 215.768 75.3
122 309.921 64.7
123 549.227 173
124 3334.59 45.8
125 863.071 123
126 549.227 123
127 470.766 166
128 380.536 166
129 203.998 139
130 66.6918 161
131 7.45379 44.9
132 25.1075 84.8
133 192.229 161
134 333.459 70.4
135 627.688 173
136 1.92229 51.6
137 21.5768 73.3
138 7.45379 174
139 470.766 132
140 145.153 69.9
141 15.6922 144
142 1922.29 97.9
143 392.305 155
144 588.457 104
145 117.691 149
146 509.996 157
147 286.382 166
148 333.459 89.8
149 392.305 79.1
150 6669.18 45.2
151 470.766 101
152 745.379 125
153 168.691 49.6
154 509.996 112
155 100 109.47

Dihedral Coeffs # harmonic

1 0.638145 -1 1
2 0.81501 -1 1
3 1.18786 -1 1
4 1.40057 -1 1
5 2.2347 -1 1
6 2.2586 -1 1
7 0.666826 1 1
8 1.27868 1 1
9 0.365679 -1 2
10 1.40057 -1 2
11 1.69933 -1 2
12 3.9914 -1 2
13 5.73614 -1 2
14 8.00669 -1 2
15 9.99044 -1 2
16 0 1 2
17 0.0999044 1 2
18 0.499522 1 2
19 0.750478 1 2
20 1.21654 1 2
21 3.9914 1 2
22 0.250956 1 3
23 0.301147 1 3
24 0.310707 1 3
25 0.604685 1 3
26 0.700287 1 3
27 0.762428 1 3
28 0.872371 1 3
29 0.901052 1 3
30 0.932122 1 3
31 0.999044 1 3
32 1.12094 1 3
33 1.30019 1 3
34 1.41491 1 3
35 1.83795 1 3
36 2.06023 1 3
37 2.27055 1 3
38 0 1 4
39 0.239006 -1 6
40 0.239006 1 6
41 0.901052 1 6
42 0.83652 -1 2
43 0.669216 1 3
44 0.167304 -1 6
45 0.0956023 1 6
46 0.239006 -1 3
47 0 1 1

Improper Coeffs # harmonic

1 20.0075 0
2 40.0151 35.2644
3 80.0302 0
4 20.0075 180
5 40.0151 -35.2644

Atoms # full

4859 1162 71 4.2380000000000001e-01 2.6280631567880778e+01 9.5132176707213070e+00 1.6120653578029572e+01 3 -3 -5
6515 1714 71 4.2380000000000001e-01 2.9396079835810728e+01 1.6427810712526838e+01 1.4057741148984663e+01 4 -3 -3
5745 1457 71 4.2380000000000001e-01 1.1790980011354453e+01 1.1376424200544541e+01 1.4262227107483785e+01 5 -2 -4
5744 1457 71 4.2380000000000001e-01 1.1622410963002068e+01 1.2459368713961169e+01 1.3051673720407411e+01 5 -2 -4
5746 1457 70 -8.4760000000000002e-01 1.1286381319704502e+01 1.1595600885210917e+01 1.3427157677394352e+01 5 -2 -4
3082 569 70 -8.4760000000000002e-01 1.6649278660789168e+01 1.4822441180058387e+01 1.7989823657783248e+01 4 0 -2
3080 569 71 4.2380000000000001e-01 1.7604860953729759e+01 1.4656952546024483e+01 1.8233698559888445e+01 4 0 -2
3081 569 71 4.2380000000000001e-01 1.6428072761197981e+01 1.4323988581019197e+01 1.7151604158012301e+01 4 0 -2
5593 1406 70 -8.4760000000000002e-01 1.5899575431089715e+01 1.3422214733020621e+01 1.0202018014094547e+01 5 -2 -4
5591 1406 71 4.2380000000000001e-01 1.5783466975951912e+01 1.2695774586855297e+01 1.0879367727743546e+01 5 -2 -4
2970 532 71 4.2380000000000001e-01 1.3015125634353563e+01 1.1352732443098864e+01 1.6330017659372054e+01 4 -1 -2
2971 532 70 -8.4760000000000002e-01 1.2466993648348520e+01 1.0784779059439490e+01 1.5716031124766388e+01 4 -1 -2
2969 532 71 4.2380000000000001e-01 1.1943571686027674e+01 1.0122930136246366e+01 1.6252673113751950e+01 4 -1 -2
3448 691 70 -8.4760000000000002e-01 1.4889671900924540e+01 1.3757101846919223e+01 1.3409972463505275e+01 4 -3 -1
3640 755 70 -8.4760000000000002e-01 1.7722639092945094e+01 1.7251664891244019e+01 1.7284388377260434e+01 6 -2 -1
3638 755 71 4.2380000000000001e-01 1.7551385234932251e+01 1.6297602561621659e+01 1.7530226399569287e+01 6 -2 -1
2517 381 71 4.2380000000000001e-01 8.9497740031631707e+00 1.0917033812764412e+01 1.5758668713122640e+01 1 -1 -2
4158 928 71 4.2380000000000001e-01 1.5131409852732563e+01 1.6462970198105651e+01 1.2164129641101820e+01 2 -1 -2
3447 691 71 4.2380000000000001e-01 1.5408923999755793e+01 1.3476108616852922e+01 1.4217077959991276e+01 4 -3 -1
3867 831 71 4.2380000000000001e-01 1.4725302876885882e+01 1.0622419200459101e+01 1.2339890069664417e+01 4 -3 -3
9310 2645 70 -8.4760000000000002e-01 1.6016172738037604e+01 1.3103596725236397e+01 1.5897594261584354e+01 6 0 -2
3868 831 70 -8.4760000000000002e-01 1.5184562756569310e+01 1.1435753131638940e+01 1.1982723879181703e+01 4 -3 -3
9309 2645 71 4.2380000000000001e-01 1.5528061796283655e+01 1.2614307305158867e+01 1.6620327082946066e+01 6 0 -2
6015 1547 71 4.2380000000000001e-01 9.4769623975565089e+00 8.5765311243338349e+00 1.6589063173298001e+01 2 -1 -3
7788 2138 71 4.2380000000000001e-01 1.4526204348422528e+01 1.2849281983033052e+01 9.1414184104707310e+00 3 -3 -2
7789 2138 70 -8.4760000000000002e-01 1.3982059087439421e+01 1.2704957354954912e+01 8.3149346060890963e+00 3 -3 -2
7738 2121 70 -8.4760000000000002e-01 1.3794509477607743e+01 1.7512568455088889e+01 8.0370172524279084e+00 3 -3 -4
3866 831 71 4.2380000000000001e-01 1.4974668102346259e+01 1.2220302861392465e+01 1.2566183639173868e+01 4 -3 -3
3446 691 71 4.2380000000000001e-01 1.4439503865096377e+01 1.4631495427771718e+01 1.3591035062162867e+01 4 -3 -1
5140 1255 70 -8.4760000000000002e-01 1.0390250322959947e+01 1.4232987081279806e+01 1.1288405028046737e+01 5 -3 -3
5139 1255 71 4.2380000000000001e-01 1.0841090609618771e+01 1.3633573936134002e+01 1.0627008085630852e+01 5 -3 -3
5138 1255 71 4.2380000000000001e-01 9.5527665596565452e+00 1.4602933718417550e+01 1.0886211718333744e+01 5 -3 -3
3570 732 71 4.2380000000000001e-01 9.3518834933612673e+00 1.1412682552582694e+01 1.3494643559491950e+01 6 0 -3
9308 2645 71 4.2380000000000001e-01 1.6935733231932467e+01 1.2723013243978000e+01 1.5799797975975221e+01 6 0 -2
3796 807 70 -8.4760000000000002e-01 1.0607035808824961e+01 1.1560618759086477e+01 1.9708287932390533e+01 4 -1 0
2012 213 71 4.2380000000000001e-01 1.2015829359036744e+01 1.8554694444604991e+01 1.6589621628535141e+01 5 -2 0
6718 1781 70 -8.4760000000000002e-01 1.7528498316490946e+01 1.0087076072890632e+01 1.1214137908891926e+01 5 0 -2
3292 639 70 -8.4760000000000002e-01 1.9898700209116964e+01 1.4979708305662573e+01 1.4998953548965615e+01 4 -1 -3
3290 639 71 4.2380000000000001e-01 1.9419716903286634e+01 1.5856603430221998e+01 1.5039314892580968e+01 4 -1 -3
5592 1406 71 4.2380000000000001e-01 1.6022799512305220e+01 1.4297460579027307e+01 1.0669735402489684e+01 5 -2 -4
3571 732 70 -8.4760000000000002e-01 8.5152362902936058e+00 1.1032369921409114e+01 1.3888830008259589e+01 6 0 -3
3645 757 71 4.2380000000000001e-01 9.0336060574647128e+00 2.1142858180071997e+01 7.9352231375286344e+00 5 -5 -2
8137 2254 70 -8.4760000000000002e-01 8.5222208570037452e+00 9.7960371431623638e+00 2.3174153079031363e+01 5 0 1
6717 1781 71 4.2380000000000001e-01 1.6635506289292870e+01 1.0532766179126144e+01 1.1151490126097846e+01 5 0 -2
3291 639 71 4.2380000000000001e-01 2.0826993810805703e+01 1.5090320764645668e+01 1.5353967698116486e+01 4 -1 -3
7854 2160 71 4.2380000000000001e-01 1.3181789771319316e+01 9.9244764285687435e+00 1.3610387403627882e+01 5 -2 -2
3794 807 71 4.2380000000000001e-01 1.0600967333575596e+01 1.2560312939260825e+01 1.9684336162896741e+01 4 -1 0
7300 1975 70 -8.4760000000000002e-01 1.8243129628896089e+01 1.6641458367524983e+01 9.8126599192112831e+00 3 -2 -3
4653 1093 71 4.2380000000000001e-01 9.3075740101984845e+00 1.6204578895180472e+01 9.4994465565291968e+00 4 -4 -4
6794 1807 71 4.2380000000000001e-01 8.1832959737148681e+00 1.5538813857687579e+01 1.3249762198464731e+01 4 -4 -1
3795 807 71 4.2380000000000001e-01 1.0714806229332760e+01 1.1250489027940809e+01 2.0652853459567389e+01 4 -1 0
2906 511 71 4.2380000000000001e-01 1.3101180743994307e+01 1.6356338274894352e+01 1.3837423579921463e+01 5 -1 -4
2908 511 70 -8.4760000000000002e-01 1.2313993105259907e+01 1.6361757008921252e+01 1.4454112663623590e+01 5 -1 -4
2518 381 70 -8.4760000000000002e-01 9.0566928097771573e+00 1.0908712007771285e+01 1.6752901166999077e+01 1 -1 -2
2276 301 71 4.2380000000000001e-01 1.6634977831983257e+01 1.4233749039496171e+01 8.5501719066066588e+00 2 -3 -1
2516 381 71 4.2380000000000001e-01 9.8539183963358123e+00 1.0356935798350396e+01 1.6997796274658107e+01 1 -1 -2
4157 928 71 4.2380000000000001e-01 1.4962358386471823e+01 1.7707922460693407e+01 1.3207268755449862e+01 2 -1 -2
8557 2394 70 -8.4760000000000002e-01 1.5434506679125388e+01 1.9299055156299890e+01 1.3084474869036196e+01 6 -1 -2
4159 928 70 -8.4760000000000002e-01 1.4671299440225384e+01 1.6774981439365952e+01 1.2995361460822435e+01 2 -1 -2
7855 2160 70 -8.4760000000000002e-01 1.3694933340867518e+01 9.4422748128760468e+00 1.2900342131513543e+01 5 -2 -2
2907 511 71 4.2380000000000001e-01 1.2330253623009463e+01 1.7194161449718585e+01 1.5008041999873797e+01 5 -1 -4
4047 891 71 4.2380000000000001e-01 1.0992655525374763e+01 1.5660988355875389e+01 1.4217191195432681e+01 5 -3 -2
4048 891 70 -8.4760000000000002e-01 1.0125141285127741e+01 1.5443232101105671e+01 1.3769977339143640e+01 5 -3 -2
4654 1093 70 -8.4760000000000002e-01 8.7693035913095851e+00 1.6403024331867623e+01 1.0318521318100601e+01 4 -4 -4
4763 1130 71 4.2380000000000001e-01 1.2732703744924464e+01 9.1269379414166014e+00 1.1219133157586169e+01 4 0 -2
4046 891 71 4.2380000000000001e-01 1.0295888192289031e+01 1.4853636036960241e+01 1.2980533900624010e+01 5 -3 -2
7774 2133 70 -8.4760000000000002e-01 1.4094278175552226e+01 1.2052205842100083e+01 1.8055275270294082e+01 4 -2 -2
7853 2160 71 4.2380000000000001e-01 1.3679406308675391e+01 8.4599378626175206e+00 1.3086814742640797e+01 5 -2 -2
9066 2564 71 4.2380000000000001e-01 8.9107183327680364e+00 1.5514921328805453e+01 1.5898542709666163e+01 2 -3 -2
4433 1020 71 4.2380000000000001e-01 1.8259245126532765e+01 1.0626912889117142e+01 1.5518888180943065e+01 3 -2 -4
5211 1279 71 4.2380000000000001e-01 1.1212255822933258e+01 1.0307096254876470e+01 1.8344672329037707e+01 3 -4 -3
9065 2564 71 4.2380000000000001e-01 8.5794582687082173e+00 1.4868216902223828e+01 1.7360959884895969e+01 2 -3 -2
5212 1279 70 -8.4760000000000002e-01 1.0979103213187567e+01 9.5213511000609170e+00 1.7771746784329842e+01 3 -4 -3
3802 809 70 -8.4760000000000002e-01 2.5387930212472082e+01 2.7347082273110956e+01 7.9131035457831480e+00 5 -1 -2
4652 1093 71 4.2380000000000001e-01 8.8310457572104202e+00 1.7378521232350138e+01 1.0529691180561734e+01 4 -4 -4
2981 536 71 4.2380000000000001e-01 2.0456704108734606e+01 1.4765016749400086e+01 1.1067309835393450e+01 5 0 -2
4284 970 71 4.2380000000000001e-01 1.4833898034206001e+01 1.6442166354448176e+01 9.2234892935994477e+00 6 1 -3
4285 970 70 -8.4760000000000002e-01 1.5434386160341470e+01 1.6192380484260507e+01 9.9831076912022674e+00 6 1 -3
4283 970 71 4.2380000000000001e-01 1.6385483262362296e+01 1.6364575233872774e+01 9.7266659074985267e+00 6 1 -3
6833 1820 71 4.2380000000000001e-01 8.5229552600237888e+00 1.7545086382257551e+01 1.6487382639145729e+01 7 1 -4
9067 2564 70 -8.4760000000000002e-01 8.3777931379934554e+00 1.5623761027196554e+01 1.6737675421258025e+01 2 -3 -2
4435 1020 70 -8.4760000000000002e-01 1.8184250684954655e+01 1.1549445253487949e+01 1.5897449766944259e+01 3 -2 -4
2831 486 71 4.2380000000000001e-01 1.5357667119101926e+01 8.9190721681591842e+00 8.7826949265676042e+00 2 -3 -5
7299 1975 71 4.2380000000000001e-01 1.9008646989945625e+01 1.6678768677101253e+01 9.1703279901841128e+00 3 -2 -3
7298 1975 71 4.2380000000000001e-01 1.8271006240455407e+01 1.7441996078386044e+01 1.0411292876889480e+01 3 -2 -3
6413 1680 71 4.2380000000000001e-01 1.0283036374034356e+01 9.3145079016573131e+00 9.3773758864804275e+00 6 0 -5
6835 1820 70 -8.4760000000000002e-01 8.9977410322159450e+00 1.8377896445085504e+01 1.6202768874545853e+01 7 1 -4
3569 732 71 4.2380000000000001e-01 7.9184166778998426e+00 1.1777467935737270e+01 1.4186545602703511e+01 6 0 -3
7308 1978 71 4.2380000000000001e-01 9.0966492230968505e+00 1.9088057561537088e+01 2.0909447453249086e+01 4 -3 -2
5114 1247 71 4.2380000000000001e-01 8.3262006383853571e+00 1.6168551786574497e+01 2.6544181200725689e+01 3 -2 -2
6512 1713 71 4.2380000000000001e-01 1.4588851968651714e+01 8.0787443070636265e+00 1.7594209922941836e+01 3 -2 -1
9482 2703 71 4.2380000000000001e-01 2.3383498182554813e+01 1.0299339787826142e+01 8.1627085097662615e+00 6 0 -1
2245 290 70 -8.4760000000000002e-01 2.9977512002651498e+01 1.6001083960765058e+01 2.3296875520256343e+01 4 -3 -3
2833 486 70 -8.4760000000000002e-01 1.5346036154970324e+01 8.6015430828015482e+00 9.7308716280172742e+00 2 -3 -5
3624 750 71 4.2380000000000001e-01 2.4745779598880535e+01 8.1872029560478623e+00 2.8761143961340210e+01 3 0 -2
4765 1130 70 -8.4760000000000002e-01 1.1819788178196273e+01 9.0628955092251715e+00 1.0816041592623931e+01 4 0 -2
5210 1279 71 4.2380000000000001e-01 1.0775776395657068e+01 8.7335532467738837e+00 1.8353151850277779e+01 3 -4 -3
4038 888 71 4.2380000000000001e-01 1.8325878505015964e+01 8.6653879233243103e+00 1.0454842176181229e+01 4 0 -2
7224 1950 71 4.2380000000000001e-01 1.1694232278405106e+01 1.0866094049010536e+01 1.0180205321087806e+01 4 0 -2
3089 572 71 4.2380000000000001e-01 1.2099268202245948e+01 2.9882738783584674e+01 2.1262587515024027e+01 5 -3 -2
7225 1950 70 -8.4760000000000002e-01 1.1609939018260761e+01 1.1794560451192012e+01 9.8184818903958693e+00 4 0 -2
2832 486 71 4.2380000000000001e-01 1.5918432891308514e+01 9.2011243716789455e+00 1.0290213435975060e+01 2 -3 -5
6716 1781 71 4.2380000000000001e-01 1.7795081917715841e+01 1.0008374126094541e+01 1.2174730616767587e+01 5 0 -2
2850 492 71 4.2380000000000001e-01 1.7731685077285494e+01 1.7453324473785425e+01 1.4048141323263511e+01 3 -3 -2
2851 492 70 -8.4760000000000002e-01 1.8506329058594574e+01 1.7401290128185931e+01 1.4678393765747343e+01 3 -3 -2
2849 492 71 4.2380000000000001e-01 1.8169962959453485e+01 1.7394274104383790e+01 1.5620098499510330e+01 3 -3 -2
8871 2499 71 4.2380000000000001e-01 1.7946255652022099e+01 8.2572524723303751e+00 1.7994990238953790e+01 5 -3 -3
3639 755 71 4.2380000000000001e-01 1.7128297858736268e+01 1.7847023360045455e+01 1.7825041565305064e+01 6 -2 -1
5913 1513 71 4.2380000000000001e-01 8.0258664097184838e+00 1.7521115765278090e+01 2.9668971033123444e+01 5 -3 -4
8719 2448 70 -8.4760000000000002e-01 7.9726040583292148e+00 1.4794739100945170e+01 2.1082029207253353e+01 2 -1 -3
2014 213 70 -8.4760000000000002e-01 1.2458919388624260e+01 1.8784334881417621e+01 1.5723056227499180e+01 5 -2 0
7668 2098 71 4.2380000000000001e-01 1.0628745479339418e+01 1.7382998595324814e+01 1.2986434879954217e+01 5 -2 -4
8527 2384 70 -8.4760000000000002e-01 9.9800334572749101e+00 1.5376846395177722e+01 7.9210802629119303e+00 5 -5 -2
3421 682 70 -8.4760000000000002e-01 8.6960035048858160e+00 1.9452075236179091e+01 1.0342982010314202e+01 6 -1 -5
3419 682 71 4.2380000000000001e-01 9.3924904490434518e+00 1.9147067952028689e+01 1.0992501472827623e+01 6 -1 -5
7340 1989 71 4.2380000000000001e-01 1.3307916466234492e+01 1.7499362776259971e+01 1.1809787995096494e+01 6 -4 -1
9150 2592 71 4.2380000000000001e-01 1.4008542104770969e+01 2.9659118921284474e+01 2.8435529160873429e+01 5 -2 -3
4764 1130 71 4.2380000000000001e-01 1.1148940796475724e+01 8.8868678820452143e+00 1.1536442224091651e+01 4 0 -2
9421 2682 70 -8.4760000000000002e-01 9.6219441919115560e+00 1.2665944278540669e+01 7.8957860266491808e+00 7 -2 -1
7773 2133 71 4.2380000000000001e-01 1.3394202524677791e+01 1.2376316226697755e+01 1.8691550037659031e+01 4 -2 -2
9047 2558 71 4.2380000000000001e-01 9.4378504268643422e+00 1.4507275731189992e+01 1.9925761050007530e+01 6 -3 -2
9049 2558 70 -8.4760000000000002e-01 1.0412486546856513e+01 1.4383063134305399e+01 1.9739603033907866e+01 6 -3 -2
10090 2905 70 -8.4760000000000002e-01 2.9628953697517090e+01 2.2748871930437634e+01 2.7451674818327010e+01 4 -2 -3
7223 1950 71 4.2380000000000001e-01 1.2419056345663769e+01 1.2014747343492061e+01 9.2736461737123417e+00 4 0 -2
5352 1326 71 4.2380000000000001e-01 7.7787752690308380e+00 1.0132466357814387e+01 9.8859451406860472e+00 3 -1 -2
1992 206 71 4.2380000000000001e-01 2.8119915965163312e+01 2.2612261791085150e+01 2.9907853809106768e+01 1 -3 -1
9192 2606 71 4.2380000000000001e-01 1.6643413553985724e+01 1.5548386945514626e+01 2.9242545244488038e+01 3 -1 -3
3165 597 71 4.2380000000000001e-01 2.9982921320871760e+01 2.9744020079052444e+01 1.6198129904339297e+01 4 -4 0
4701 1109 71 4.2380000000000001e-01 8.3403497028315829e+00 8.1513142947616117e+00 1.2170308060901817e+01 4 -1 -3
5957 1528 71 4.2380000000000001e-01 1.5291141400192691e+01 7.8639528947091337e+00 2.8312075305117020e+01 3 -1 -2
9420 2682 71 4.2380000000000001e-01 1.0185427240231622e+01 1.2260107207835105e+01 8.6153569253644608e+00 7 -2 -1
6514 1713 70 -8.4760000000000002e-01 1.4198024056759287e+01 8.7182691818645690e+00 1.8256222579513235e+01 3 -2 -1
7811 2146 71 4.2380000000000001e-01 1.9974008367585412e+01 2.1156479307951770e+01 1.9692305135537762e+01 5 -2 1
2942 523 71 4.2380000000000001e-01 1.9362096401847033e+01 1.4466081181867017e+01 1.7091425182436190e+01 4 -3 -6
5415 1347 71 4.2380000000000001e-01 7.7047403558157006e+00 2.5912224820743567e+01 1.8297047765385187e+01 3 -2 -3
2502 376 71 4.2380000000000001e-01 8.1618251568727054e+00 1.3216761540820162e+01 8.8636385426757460e+00 4 0 -2
3728 785 71 4.2380000000000001e-01 1.8895178408166096e+01 1.1196530770261942e+01 1.0557164164725638e+01 3 -3 -2
3729 785 71 4.2380000000000001e-01 1.9484274889688528e+01 1.2718394396503063e+01 1.0497832160978737e+01 3 -3 -2
5888 1505 71 4.2380000000000001e-01 2.7249863628092928e+01 9.4458498880030763e+00 9.7888116265702259e+00 3 -1 0
2983 536 70 -8.4760000000000002e-01 1.9566066942489186e+01 1.4373771787346680e+01 1.1299024881819827e+01 5 0 -2
3730 785 70 -8.4760000000000002e-01 1.9623378262119893e+01 1.1776521508312349e+01 1.0192013812987856e+01 3 -3 -2
7309 1978 70 -8.4760000000000002e-01 8.4158828978109117e+00 1.8825353725787373e+01 2.1593218584158315e+01 4 -3 -2
4702 1109 70 -8.4760000000000002e-01 9.0793234454493312e+00 7.7388210856439095e+00 1.1637610960671227e+01 4 -1 -3
3498 708 71 4.2380000000000001e-01 2.9896756192762179e+01 1.8790708492293671e+01 2.8024195981299957e+01 2 -4 -2
3362 663 71 4.2380000000000001e-01 2.4035975108710897e+01 1.7621253560756369e+01 8.1141362684137714e+00 5 0 -3
3223 616 70 -8.4760000000000002e-01 2.0366493929791705e+01 1.7380943524456342e+01 1.7334736084517797e+01 4 -5 -4
3222 616 71 4.2380000000000001e-01 1.9370013090754188e+01 1.7300937055334483e+01 1.7309751412761656e+01 4 -5 -4
7986 2204 71 4.2380000000000001e-01 2.0071976194206357e+01 1.3036766449769747e+01 1.2540106241568431e+01 5 -3 0
8136 2254 71 4.2380000000000001e-01 7.7420183011774562e+00 1.0286142810061252e+01 2.2785463689199631e+01 5 0 1
2555 394 71 4.2380000000000001e-01 2.5458757095936321e+01 1.1382318159102075e+01 9.5338083977896044e+00 2 -3 -1
2532 386 71 4.2380000000000001e-01 2.6506117066313500e+01 1.4328110927044552e+01 1.1282064320147290e+01 4 -3 -3
2982 536 71 4.2380000000000001e-01 1.8880633921194644e+01 1.5101197999111939e+01 1.1331144340521202e+01 5 0 -2
9810 2812 71 4.2380000000000001e-01 2.1180725767161867e+01 1.9422796739698775e+01 1.4658824599457926e+01 6 -2 -4
7985 2204 71 4.2380000000000001e-01 2.0129338295200952e+01 1.3341870299871161e+01 1.4143304602327635e+01 5 -3 0
9811 2812 70 -8.4760000000000002e-01 2.0429494693269671e+01 1.9203218026588182e+01 1.4036380950009757e+01 6 -2 -4
7987 2204 70 -8.4760000000000002e-01 2.0385413567151566e+01 1.2694148444168750e+01 1.3425752406493913e+01 5 -3 0
9809 2812 71 4.2380000000000001e-01 2.0036901416669860e+01 1.8318280749078383e+01 1.4286891617441068e+01 6 -2 -4
8444 2357 71 4.2380000000000001e-01 2.2221797337538369e+01 1.2575215709587841e+01 1.3696938913216385e+01 4 -2 -4
6456 1694 71 4.2380000000000001e-01 2.0023487743682196e+01 1.2215175448913474e+01 8.5802762411147562e+00 6 -3 -1
9468 2698 71 4.2380000000000001e-01 2.7171143851799510e+01 2.0623080881306763e+01 2.9517203672443841e+01 4 -2 1
1937 188 71 4.2380000000000001e-01 2.5310264538675497e+01 1.2257317212620844e+01 1.6212817858214589e+01 5 -2 -4
7642 2089 70 -8.4760000000000002e-01 1.9374413425731397e+01 9.7186322761409887e+00 1.3713288746984730e+01 7 -2 -3
7640 2089 71 4.2380000000000001e-01 1.9993703865565870e+01 8.9642827888946517e+00 1.3495492428613430e+01 7 -2 -3
7972 2199 70 -8.4760000000000002e-01 2.3182557477028730e+01 1.0196264511726641e+01 1.5440782184207055e+01 5 -3 -1
7971 2199 71 4.2380000000000001e-01 2.3216042312114354e+01 1.0874504696899937e+01 1.4706705734175413e+01 5 -3 -1
7641 2089 71 4.2380000000000001e-01 1.9842693436383549e+01 1.0588953525252666e+01 1.3560796900638419e+01 7 -2 -3
8446 2357 70 -8.4760000000000002e-01 2.3114757502717868e+01 1.2137088757293094e+01 1.3593661790483804e+01 4 -2 -4
9338 2655 71 4.2380000000000001e-01 2.4838156170995937e+01 1.3620763937607570e+01 1.1727341316761036e+01 3 0 -2
8445 2357 71 4.2380000000000001e-01 2.3244790491396788e+01 1.1866174758291676e+01 1.2639881809791035e+01 4 -2 -4
9340 2655 70 -8.4760000000000002e-01 2.4716420562621572e+01 1.4537109380062095e+01 1.1345909031487434e+01 3 0 -2
9339 2655 71 4.2380000000000001e-01 2.3949660475766755e+01 1.4531789474497060e+01 1.0703997966913207e+01 3 0 -2
8673 2433 71 4.2380000000000001e-01 2.5820331750155674e+01 1.0839071870222948e+01 1.2252994409268979e+01 4 -2 -2
8674 2433 70 -8.4760000000000002e-01 2.5684789720403568e+01 1.1673678113294121e+01 1.1719084468815804e+01 4 -2 -2
8672 2433 71 4.2380000000000001e-01 2.6468826198407658e+01 1.2281348361387316e+01 1.1845665064024931e+01 4 -2 -2
8331 2319 71 4.2380000000000001e-01 2.5670617708947820e+01 1.4331559266506567e+01 1.6110300744274170e+01 3 -2 -3
8332 2319 70 -8.4760000000000002e-01 2.5876527302850175e+01 1.5066999028179531e+01 1.6755846266081235e+01 3 -2 -3
1939 188 70 -8.4760000000000002e-01 2.5476582346000935e+01 1.2782413398167879e+01 1.5378185181852526e+01 5 -2 -4